 Entering Gaussian System, Link 0=g16
 Input=ca2+.com
 Output=ca2+.log
 Initial command:
 /sw/contrib/gaussian/g16/C01_v2/g16/l1.exe "/scr/Gau-5404.inp" -scrdir="/scr/"
 Entering Link 1 = /sw/contrib/gaussian/g16/C01_v2/g16/l1.exe PID=      5405.
  
 Copyright (c) 1988-2019, Gaussian, Inc.  All Rights Reserved.
  
 This is part of the Gaussian(R) 16 program.  It is based on
 the Gaussian(R) 09 system (copyright 2009, Gaussian, Inc.),
 the Gaussian(R) 03 system (copyright 2003, Gaussian, Inc.),
 the Gaussian(R) 98 system (copyright 1998, Gaussian, Inc.),
 the Gaussian(R) 94 system (copyright 1995, Gaussian, Inc.),
 the Gaussian 92(TM) system (copyright 1992, Gaussian, Inc.),
 the Gaussian 90(TM) system (copyright 1990, Gaussian, Inc.),
 the Gaussian 88(TM) system (copyright 1988, Gaussian, Inc.),
 the Gaussian 86(TM) system (copyright 1986, Carnegie Mellon
 University), and the Gaussian 82(TM) system (copyright 1983,
 Carnegie Mellon University). Gaussian is a federally registered
 trademark of Gaussian, Inc.
  
 This software contains proprietary and confidential information,
 including trade secrets, belonging to Gaussian, Inc.
  
 This software is provided under written license and may be
 used, copied, transmitted, or stored only in accord with that
 written license.
  
 The following legend is applicable only to US Government
 contracts under FAR:
  
                    RESTRICTED RIGHTS LEGEND
  
 Use, reproduction and disclosure by the US Government is
 subject to restrictions as set forth in subparagraphs (a)
 and (c) of the Commercial Computer Software - Restricted
 Rights clause in FAR 52.227-19.
  
 Gaussian, Inc.
 340 Quinnipiac St., Bldg. 40, Wallingford CT 06492
  
  
 ---------------------------------------------------------------
 Warning -- This program may not be used in any manner that
 competes with the business of Gaussian, Inc. or will provide
 assistance to any competitor of Gaussian, Inc.  The licensee
 of this program is prohibited from giving any competitor of
 Gaussian, Inc. access to this program.  By using this program,
 the user acknowledges that Gaussian, Inc. is engaged in the
 business of creating and licensing software in the field of
 computational chemistry and represents and warrants to the
 licensee that it is not a competitor of Gaussian, Inc. and that
 it will not use this program in any manner prohibited above.
 ---------------------------------------------------------------
  

 Cite this work as:
 Gaussian 16, Revision C.01,
 M. J. Frisch, G. W. Trucks, H. B. Schlegel, G. E. Scuseria, 
 M. A. Robb, J. R. Cheeseman, G. Scalmani, V. Barone, 
 G. A. Petersson, H. Nakatsuji, X. Li, M. Caricato, A. V. Marenich, 
 J. Bloino, B. G. Janesko, R. Gomperts, B. Mennucci, H. P. Hratchian, 
 J. V. Ortiz, A. F. Izmaylov, J. L. Sonnenberg, D. Williams-Young, 
 F. Ding, F. Lipparini, F. Egidi, J. Goings, B. Peng, A. Petrone, 
 T. Henderson, D. Ranasinghe, V. G. Zakrzewski, J. Gao, N. Rega, 
 G. Zheng, W. Liang, M. Hada, M. Ehara, K. Toyota, R. Fukuda, 
 J. Hasegawa, M. Ishida, T. Nakajima, Y. Honda, O. Kitao, H. Nakai, 
 T. Vreven, K. Throssell, J. A. Montgomery, Jr., J. E. Peralta, 
 F. Ogliaro, M. J. Bearpark, J. J. Heyd, E. N. Brothers, K. N. Kudin, 
 V. N. Staroverov, T. A. Keith, R. Kobayashi, J. Normand, 
 K. Raghavachari, A. P. Rendell, J. C. Burant, S. S. Iyengar, 
 J. Tomasi, M. Cossi, J. M. Millam, M. Klene, C. Adamo, R. Cammi, 
 J. W. Ochterski, R. L. Martin, K. Morokuma, O. Farkas, 
 J. B. Foresman, and D. J. Fox, Gaussian, Inc., Wallingford CT, 2019.
 
 ******************************************
 Gaussian 16:  EM64L-G16RevC.01  3-Jul-2019
                17-Nov-2022 
 ******************************************
 %mem=92GB
 %nprocshared=28
 Will use up to   28 processors via shared memory.
 %rwf=ca2+.rwf
 ----------------------------------------------------------------------
 #p td(50-50,nstates=3) IOp(3/33=1) pop=full nosymm pbe1pbe/gen int=dkh
  IOp(8/10=90) ExtraLinks(L319)
 ----------------------------------------------------------------------
 1/38=1,172=1/1;
 2/12=2,15=1,17=6,18=5,40=1/2;
 3/5=7,11=9,25=1,30=1,33=1,74=-13,91=4/1,2,3,8,19;
 4//1;
 5/5=2,38=5/2;
 8/6=1,10=90,108=3/1;
 9/41=3,42=1,48=2,70=2/14;
 6/7=3/1;
 99/5=1,9=1/99;
 Leave Link    1 at Thu Nov 17 11:34:06 2022, MaxMem= 12348030976 cpu:               1.2 elap:               0.1
 (Enter /sw/contrib/gaussian/g16/C01_v2/g16/l101.exe)
 ----------------
 Ca2+ ano-rcc-vdz
 ----------------
 Symbolic Z-matrix:
 Charge =  2 Multiplicity = 1
 Ca(ZEff=20.0)         0.        0.        0. 
 
 ITRead=  0
 MicOpt= -1
 NAtoms=      1 NQM=        1 NQMF=       0 NMMI=      0 NMMIF=      0
                NMic=       0 NMicF=      0.
                    Isotopes and Nuclear Properties:
 (Nuclear quadrupole moments (NQMom) in fm**2, nuclear magnetic moments (NMagM)
  in nuclear magnetons)

  Atom         1
 IAtWgt=          40
 AtmWgt=  39.9625907
 NucSpn=           0
 AtZEff= -20.0000000
 NQMom=    0.0000000
 NMagM=    0.0000000
 AtZNuc=  20.0000000
 Leave Link  101 at Thu Nov 17 11:34:06 2022, MaxMem= 12348030976 cpu:               3.3 elap:               0.2
 (Enter /sw/contrib/gaussian/g16/C01_v2/g16/l202.exe)
                          Input orientation:                          
 ---------------------------------------------------------------------
 Center     Atomic      Atomic             Coordinates (Angstroms)
 Number     Number       Type             X           Y           Z
 ---------------------------------------------------------------------
      1         20           0        0.000000    0.000000    0.000000
 ---------------------------------------------------------------------
 Symmetry turned off by external request.
 Stoichiometry    Ca(2+)
 Framework group  OH[O(Ca)]
 Deg. of freedom     0
 Full point group                 OH      NOp  48
 Leave Link  202 at Thu Nov 17 11:34:06 2022, MaxMem= 12348030976 cpu:               0.9 elap:               0.1
 (Enter /sw/contrib/gaussian/g16/C01_v2/g16/l301.exe)
 General basis read from cards:  (5D, 7F)
                         Coordinates in L301:                         
 ---------------------------------------------------------------------
 Center     Atomic      Atomic             Coordinates (Angstroms)
 Number     Number       Type             X           Y           Z
 ---------------------------------------------------------------------
      1         20           0        0.000000    0.000000    0.000000
 ---------------------------------------------------------------------
 Centers:       1
 S 20 1.00
     Exponent=  6.8097193600D+06 Coefficients=  5.4180000000D-05
     Exponent=  8.2934743700D+05 Coefficients=  1.9459000000D-04
     Exponent=  1.6229066200D+05 Coefficients=  5.9564000000D-04
     Exponent=  4.1026819800D+04 Coefficients=  1.7101400000D-03
     Exponent=  1.2263762300D+04 Coefficients=  4.8864600000D-03
     Exponent=  4.1313516100D+03 Coefficients=  1.4094780000D-02
     Exponent=  1.5230956000D+03 Coefficients=  3.9640790000D-02
     Exponent=  6.0256404700D+02 Coefficients=  1.0186253000D-01
     Exponent=  2.5212422500D+02 Coefficients=  2.2001700000D-01
     Exponent=  1.1034686900D+02 Coefficients=  3.5031734000D-01
     Exponent=  4.9995815000D+01 Coefficients=  3.1595287000D-01
     Exponent=  2.2971981900D+01 Coefficients=  1.0252990000D-01
     Exponent=  9.9568098500D+00 Coefficients=  4.6746900000D-03
     Exponent=  4.5729975700D+00 Coefficients=  1.0095300000D-03
     Exponent=  2.0541931000D+00 Coefficients= -3.8009000000D-04
     Exponent=  8.8535650000D-01 Coefficients=  9.4810000000D-05
     Exponent=  3.7372268000D-01 Coefficients= -9.9700000000D-05
     Exponent=  6.6014070000D-02 Coefficients=  1.0041000000D-04
     Exponent=  2.6356720000D-02 Coefficients=  7.2600000000D-05
     Exponent=  1.0542680000D-02 Coefficients=  6.1600000000D-06
 S 20 1.00
     Exponent=  6.8097193600D+06 Coefficients= -1.5870000000D-05
     Exponent=  8.2934743700D+05 Coefficients= -5.7010000000D-05
     Exponent=  1.6229066200D+05 Coefficients= -1.7473000000D-04
     Exponent=  4.1026819800D+04 Coefficients= -5.0229000000D-04
     Exponent=  1.2263762300D+04 Coefficients= -1.4426000000D-03
     Exponent=  4.1313516100D+03 Coefficients= -4.1863500000D-03
     Exponent=  1.5230956000D+03 Coefficients= -1.2021780000D-02
     Exponent=  6.0256404700D+02 Coefficients= -3.2074070000D-02
     Exponent=  2.5212422500D+02 Coefficients= -7.6258560000D-02
     Exponent=  1.1034686900D+02 Coefficients= -1.4653945000D-01
     Exponent=  4.9995815000D+01 Coefficients= -1.9228772000D-01
     Exponent=  2.2971981900D+01 Coefficients= -2.7224180000D-02
     Exponent=  9.9568098500D+00 Coefficients=  4.4262959000D-01
     Exponent=  4.5729975700D+00 Coefficients=  5.6696223000D-01
     Exponent=  2.0541931000D+00 Coefficients=  1.3438940000D-01
     Exponent=  8.8535650000D-01 Coefficients=  1.0922600000D-03
     Exponent=  3.7372268000D-01 Coefficients=  1.3390300000D-03
     Exponent=  6.6014070000D-02 Coefficients=  1.0425200000D-03
     Exponent=  2.6356720000D-02 Coefficients=  1.2225900000D-03
     Exponent=  1.0542680000D-02 Coefficients= -2.0470000000D-05
 S 20 1.00
     Exponent=  6.8097193600D+06 Coefficients=  5.4600000000D-06
     Exponent=  8.2934743700D+05 Coefficients=  1.9610000000D-05
     Exponent=  1.6229066200D+05 Coefficients=  6.0140000000D-05
     Exponent=  4.1026819800D+04 Coefficients=  1.7283000000D-04
     Exponent=  1.2263762300D+04 Coefficients=  4.9701000000D-04
     Exponent=  4.1313516100D+03 Coefficients=  1.4414100000D-03
     Exponent=  1.5230956000D+03 Coefficients=  4.1556900000D-03
     Exponent=  6.0256404700D+02 Coefficients=  1.1105960000D-02
     Exponent=  2.5212422500D+02 Coefficients=  2.6760250000D-02
     Exponent=  1.1034686900D+02 Coefficients=  5.2306660000D-02
     Exponent=  4.9995815000D+01 Coefficients=  7.2240820000D-02
     Exponent=  2.2971981900D+01 Coefficients=  9.8290000000D-03
     Exponent=  9.9568098500D+00 Coefficients= -2.1136471000D-01
     Exponent=  4.5729975700D+00 Coefficients= -4.4855891000D-01
     Exponent=  2.0541931000D+00 Coefficients= -4.5908830000D-02
     Exponent=  8.8535650000D-01 Coefficients=  7.1765433000D-01
     Exponent=  3.7372268000D-01 Coefficients=  4.8903077000D-01
     Exponent=  6.6014070000D-02 Coefficients=  2.4977010000D-02
     Exponent=  2.6356720000D-02 Coefficients= -4.8584000000D-04
     Exponent=  1.0542680000D-02 Coefficients=  1.9804500000D-03
 S 20 1.00
     Exponent=  6.8097193600D+06 Coefficients= -1.4000000000D-06
     Exponent=  8.2934743700D+05 Coefficients= -5.0400000000D-06
     Exponent=  1.6229066200D+05 Coefficients= -1.5460000000D-05
     Exponent=  4.1026819800D+04 Coefficients= -4.4380000000D-05
     Exponent=  1.2263762300D+04 Coefficients= -1.2788000000D-04
     Exponent=  4.1313516100D+03 Coefficients= -3.6987000000D-04
     Exponent=  1.5230956000D+03 Coefficients= -1.0701600000D-03
     Exponent=  6.0256404700D+02 Coefficients= -2.8479700000D-03
     Exponent=  2.5212422500D+02 Coefficients= -6.9022800000D-03
     Exponent=  1.1034686900D+02 Coefficients= -1.3410150000D-02
     Exponent=  4.9995815000D+01 Coefficients= -1.8819750000D-02
     Exponent=  2.2971981900D+01 Coefficients= -2.2552400000D-03
     Exponent=  9.9568098500D+00 Coefficients=  5.5748430000D-02
     Exponent=  4.5729975700D+00 Coefficients=  1.3035605000D-01
     Exponent=  2.0541931000D+00 Coefficients=  4.9961600000D-03
     Exponent=  8.8535650000D-01 Coefficients= -2.4643484000D-01
     Exponent=  3.7372268000D-01 Coefficients= -3.5616581000D-01
     Exponent=  6.6014070000D-02 Coefficients=  7.5381770000D-01
     Exponent=  2.6356720000D-02 Coefficients=  4.2781919000D-01
     Exponent=  1.0542680000D-02 Coefficients= -6.8596200000D-03
 S 20 1.00
     Exponent=  6.8097193600D+06 Coefficients=  1.6100000000D-06
     Exponent=  8.2934743700D+05 Coefficients=  5.8000000000D-06
     Exponent=  1.6229066200D+05 Coefficients=  1.7720000000D-05
     Exponent=  4.1026819800D+04 Coefficients=  5.1330000000D-05
     Exponent=  1.2263762300D+04 Coefficients=  1.4554000000D-04
     Exponent=  4.1313516100D+03 Coefficients=  4.3251000000D-04
     Exponent=  1.5230956000D+03 Coefficients=  1.2103100000D-03
     Exponent=  6.0256404700D+02 Coefficients=  3.3944900000D-03
     Exponent=  2.5212422500D+02 Coefficients=  7.8310300000D-03
     Exponent=  1.1034686900D+02 Coefficients=  1.6867870000D-02
     Exponent=  4.9995815000D+01 Coefficients=  2.1074520000D-02
     Exponent=  2.2971981900D+01 Coefficients=  6.7560500000D-03
     Exponent=  9.9568098500D+00 Coefficients= -7.8345540000D-02
     Exponent=  4.5729975700D+00 Coefficients= -1.3583512000D-01
     Exponent=  2.0541931000D+00 Coefficients= -7.1481810000D-02
     Exponent=  8.8535650000D-01 Coefficients=  5.6148895000D-01
     Exponent=  3.7372268000D-01 Coefficients=  8.2311570000D-02
     Exponent=  6.6014070000D-02 Coefficients= -2.0826804800D+00
     Exponent=  2.6356720000D-02 Coefficients=  1.9379832800D+00
     Exponent=  1.0542680000D-02 Coefficients=  2.4846910000D-02
 P 16 1.00
     Exponent=  2.1599814300D+04 Coefficients=  3.8890000000D-05
     Exponent=  3.8842015500D+03 Coefficients=  2.6395000000D-04
     Exponent=  1.0969669700D+03 Coefficients=  1.4736500000D-03
     Exponent=  3.8518751600D+02 Coefficients=  6.7995900000D-03
     Exponent=  1.5393426200D+02 Coefficients=  2.5491510000D-02
     Exponent=  6.6998254100D+01 Coefficients=  7.7337750000D-02
     Exponent=  3.0970864800D+01 Coefficients=  1.8169209000D-01
     Exponent=  1.4846596300D+01 Coefficients=  3.1208695000D-01
     Exponent=  7.2877962300D+00 Coefficients=  3.5515136000D-01
     Exponent=  3.6236420400D+00 Coefficients=  2.0311430000D-01
     Exponent=  1.7339112500D+00 Coefficients=  3.7246500000D-02
     Exponent=  8.1737794000D-01 Coefficients=  4.7360000000D-04
     Exponent=  3.7811791000D-01 Coefficients=  4.9619000000D-04
     Exponent=  1.5762725000D-01 Coefficients= -1.7935000000D-04
     Exponent=  6.3050900000D-02 Coefficients=  6.1910000000D-05
     Exponent=  2.5220360000D-02 Coefficients= -1.5920000000D-05
 P 16 1.00
     Exponent=  2.1599814300D+04 Coefficients= -1.2690000000D-05
     Exponent=  3.8842015500D+03 Coefficients= -8.6020000000D-05
     Exponent=  1.0969669700D+03 Coefficients= -4.8251000000D-04
     Exponent=  3.8518751600D+02 Coefficients= -2.2285500000D-03
     Exponent=  1.5393426200D+02 Coefficients= -8.4627900000D-03
     Exponent=  6.6998254100D+01 Coefficients= -2.6102140000D-02
     Exponent=  3.0970864800D+01 Coefficients= -6.3571620000D-02
     Exponent=  1.4846596300D+01 Coefficients= -1.1259824000D-01
     Exponent=  7.2877962300D+00 Coefficients= -1.3900506000D-01
     Exponent=  3.6236420400D+00 Coefficients= -3.1889180000D-02
     Exponent=  1.7339112500D+00 Coefficients=  2.6166228000D-01
     Exponent=  8.1737794000D-01 Coefficients=  4.7844015000D-01
     Exponent=  3.7811791000D-01 Coefficients=  3.4455883000D-01
     Exponent=  1.5762725000D-01 Coefficients=  5.9953710000D-02
     Exponent=  6.3050900000D-02 Coefficients= -1.9411300000D-03
     Exponent=  2.5220360000D-02 Coefficients=  1.0468100000D-03
 P 16 1.00
     Exponent=  2.1599814300D+04 Coefficients= -1.4080000000D-05
     Exponent=  3.8842015500D+03 Coefficients= -9.5110000000D-05
     Exponent=  1.0969669700D+03 Coefficients= -5.3666000000D-04
     Exponent=  3.8518751600D+02 Coefficients= -2.4711100000D-03
     Exponent=  1.5393426200D+02 Coefficients= -9.4862200000D-03
     Exponent=  6.6998254100D+01 Coefficients= -2.9521710000D-02
     Exponent=  3.0970864800D+01 Coefficients= -7.4637490000D-02
     Exponent=  1.4846596300D+01 Coefficients= -1.2621865000D-01
     Exponent=  7.2877962300D+00 Coefficients= -1.3901822000D-01
     Exponent=  3.6236420400D+00 Coefficients= -1.2031630000D-02
     Exponent=  1.7339112500D+00 Coefficients=  6.8129550000D-01
     Exponent=  8.1737794000D-01 Coefficients=  2.9990651000D-01
     Exponent=  3.7811791000D-01 Coefficients= -6.0722153000D-01
     Exponent=  1.5762725000D-01 Coefficients= -5.5224751000D-01
     Exponent=  6.3050900000D-02 Coefficients=  2.2025580000D-02
     Exponent=  2.5220360000D-02 Coefficients=  5.8807794000D-01
 P 16 1.00
     Exponent=  2.1599814300D+04 Coefficients=  3.0700000000D-06
     Exponent=  3.8842015500D+03 Coefficients=  2.0960000000D-05
     Exponent=  1.0969669700D+03 Coefficients=  1.1642000000D-04
     Exponent=  3.8518751600D+02 Coefficients=  5.4393000000D-04
     Exponent=  1.5393426200D+02 Coefficients=  2.0435000000D-03
     Exponent=  6.6998254100D+01 Coefficients=  6.3971200000D-03
     Exponent=  3.0970864800D+01 Coefficients=  1.5414090000D-02
     Exponent=  1.4846596300D+01 Coefficients=  2.7903050000D-02
     Exponent=  7.2877962300D+00 Coefficients=  3.3283590000D-02
     Exponent=  3.6236420400D+00 Coefficients=  8.1467700000D-03
     Exponent=  1.7339112500D+00 Coefficients= -8.1867560000D-02
     Exponent=  8.1737794000D-01 Coefficients= -1.2887124000D-01
     Exponent=  3.7811791000D-01 Coefficients= -1.4496404000D-01
     Exponent=  1.5762725000D-01 Coefficients=  1.3595914000D-01
     Exponent=  6.3050900000D-02 Coefficients=  6.4051403000D-01
     Exponent=  2.5220360000D-02 Coefficients=  3.6146036000D-01
 ****
 FixB: optimizing general contractions.
 Ernie: Thresh=  0.10000D-02 Tol=  0.10000D-05 Strict=F.
 IA=     1 ShT= 0 ShC= 0 NL=   5 NS=   0.
 IA=     1 L=0 SC=0 ISt=    1 NBk=    5 NP=   20 IndPr=    0.
 DoElim1:  L=0 select primitive    4 from    2 using    1 C= 1.71D-03
 DoElim1:  L=0 select primitive    4 from    3 using    1 C= 1.71D-03
 DoElim1:  L=0 select primitive    4 from    4 using    1 C= 1.71D-03
 DoElim1:  L=0 select primitive    4 from    5 using    1 C= 1.71D-03
 DoElim1:  L=0 select primitive    8 from    3 using    2 C=-2.16D-03
 DoElim1:  L=0 select primitive    8 from    4 using    2 C=-2.16D-03
 DoElim1:  L=0 select primitive    8 from    5 using    2 C=-2.16D-03
 DoElim1:  L=0 select primitive   11 from    3 using    5 C=-3.97D-03
 DoElim1:  L=0 select primitive   11 from    4 using    5 C=-3.97D-03
 DoElim1:  L=0 select primitive   13 from    4 using    3 C=-5.12D-02
 DoElim2:  L=0 select primitive   18 from    3 using    4 C= 9.01D-01
 DoElim2:  L=0 select primitive   18 from    5 using    4 C= 9.01D-01
 DoElim2:  L=0 select primitive   18 from    2 using    4 C= 9.01D-01
 DoElim2:  L=0 select primitive   18 from    1 using    4 C= 9.01D-01
 DoElim2:  L=0 select primitive   19 from    5 using    3 C= 1.89D+00
 DoElim2:  L=0 select primitive   19 from    2 using    3 C= 1.89D+00
 DoElim2:  L=0 select primitive   19 from    1 using    3 C= 1.89D+00
 DoElim2:  L=0 select primitive   16 from    2 using    5 C=-1.01D+00
 DoElim2:  L=0 select primitive   16 from    1 using    5 C=-1.01D+00
 DoElim2:  L=0 select primitive   14 from    1 using    2 C= 5.68D-01
 Delete L=0 primitive   19 from    5 C=  0.00D+00.
 Delete L=0 primitive   18 from    5 C=  0.00D+00.
 Delete L=0 primitive    8 from    5 C=  0.00D+00.
 Delete L=0 primitive    6 from    5 C=  7.61D-07.
 Delete L=0 primitive    5 from    5 C=  5.43D-07.
 Delete L=0 primitive    4 from    5 C=  0.00D+00.
 Delete L=0 primitive    3 from    5 C=  3.48D-08.
 Delete L=0 primitive    2 from    5 C=  2.20D-09.
 Delete L=0 primitive    1 from    5 C=  9.77D-10.
 Delete L=0 primitive   13 from    4 C=  0.00D+00.
 Delete L=0 primitive   11 from    4 C=  0.00D+00.
 Delete L=0 primitive    8 from    4 C=  0.00D+00.
 Delete L=0 primitive    7 from    4 C=  6.98D-07.
 Delete L=0 primitive    6 from    4 C=  2.82D-09.
 Delete L=0 primitive    5 from    4 C=  9.15D-08.
 Delete L=0 primitive    4 from    4 C=  0.00D+00.
 Delete L=0 primitive    3 from    4 C=  6.72D-09.
 Delete L=0 primitive    2 from    4 C=  3.10D-09.
 Delete L=0 primitive    1 from    4 C=  2.80D-09.
 Delete L=0 primitive   18 from    3 C=  0.00D+00.
 Delete L=0 primitive   11 from    3 C=  0.00D+00.
 Delete L=0 primitive    8 from    3 C=  0.00D+00.
 Delete L=0 primitive    4 from    3 C=  0.00D+00.
 Delete L=0 primitive    3 from    3 C=  7.53D-08.
 Delete L=0 primitive    2 from    3 C=  1.98D-08.
 Delete L=0 primitive    1 from    3 C=  1.43D-09.
 Delete L=0 primitive   19 from    2 C=  0.00D+00.
 Delete L=0 primitive   18 from    2 C=  0.00D+00.
 Delete L=0 primitive   16 from    2 C=  0.00D+00.
 Delete L=0 primitive    4 from    2 C=  0.00D+00.
 Delete L=0 primitive    3 from    2 C=  2.17D-07.
 Delete L=0 primitive    2 from    2 C=  1.44D-07.
 Delete L=0 primitive    1 from    2 C=  4.34D-08.
 Delete L=0 primitive   19 from    1 C=  0.00D+00.
 Delete L=0 primitive   18 from    1 C=  0.00D+00.
 Delete L=0 primitive   16 from    1 C=  0.00D+00.
 Delete L=0 primitive   14 from    1 C=  0.00D+00.
 IA=     1 L=0 SC=0 ISt=    0 NBk=    0 NP=    0 IndPr=   63.
 IA=     1 ShT= 1 ShC= 1 NL=   4 NS=   0.
 IA=     1 L=1 SC=1 ISt=    1 NBk=    4 NP=   16 IndPr=    0.
 DoElim1:  L=1 select primitive    3 from    2 using    1 C= 1.47D-03
 DoElim1:  L=1 select primitive    3 from    3 using    1 C= 1.47D-03
 DoElim1:  L=1 select primitive    3 from    4 using    1 C= 1.47D-03
 DoElim1:  L=1 select primitive    6 from    2 using    3 C=-1.36D-03
 DoElim1:  L=1 select primitive    6 from    4 using    3 C=-1.36D-03
 DoElim1:  L=1 select primitive    8 from    4 using    2 C=-3.20D-03
 DoElim2:  L=1 select primitive   15 from    2 using    4 C= 6.42D-01
 DoElim2:  L=1 select primitive   15 from    3 using    4 C= 6.42D-01
 DoElim2:  L=1 select primitive   15 from    1 using    4 C= 6.42D-01
 DoElim2:  L=1 select primitive   13 from    3 using    2 C= 6.90D-01
 DoElim2:  L=1 select primitive   13 from    1 using    2 C= 6.90D-01
 DoElim2:  L=1 select primitive   11 from    1 using    3 C= 5.85D-01
 Delete L=1 primitive    8 from    4 C=  0.00D+00.
 Delete L=1 primitive    6 from    4 C=  0.00D+00.
 Delete L=1 primitive    3 from    4 C=  1.36D-20.
 Delete L=1 primitive    2 from    4 C=  2.89D-07.
 Delete L=1 primitive    1 from    4 C=  1.44D-08.
 Delete L=1 primitive   15 from    3 C=  1.51D-18.
 Delete L=1 primitive   13 from    3 C=  0.00D+00.
 Delete L=1 primitive    4 from    3 C=  5.31D-07.
 Delete L=1 primitive    3 from    3 C=  1.97D-22.
 Delete L=1 primitive    2 from    3 C=  8.53D-07.
 Delete L=1 primitive    1 from    3 C=  7.90D-08.
 Delete L=1 primitive   15 from    2 C=  1.73D-18.
 Delete L=1 primitive    6 from    2 C=  0.00D+00.
 Delete L=1 primitive    5 from    2 C=  5.47D-08.
 Delete L=1 primitive    3 from    2 C=  3.08D-22.
 Delete L=1 primitive    2 from    2 C=  1.71D-07.
 Delete L=1 primitive    1 from    2 C=  3.55D-09.
 Delete L=1 primitive   15 from    1 C=  9.79D-20.
 Delete L=1 primitive   13 from    1 C=  0.00D+00.
 Delete L=1 primitive   11 from    1 C=  0.00D+00.
 IA=     1 L=1 SC=1 ISt=    0 NBk=    0 NP=    0 IndPr=   44.
 Ernie:  57 primitive shells out of 164 were deleted.
 LdAtmC:  AtmChg=    20.000000
 AtZEff=     20.0000000
    17 basis functions,   195 primitive gaussians,    17 cartesian basis functions
     9 alpha electrons        9 beta electrons
       nuclear repulsion energy         0.0000000000 Hartrees.
 IS=     1 IAt=     1 ISR=     1 T=0 IP=      1 IndIP=      1 IndIPD=      0 C=  5.150259D+00  0.000000D+00                             NZ=T
 IS=     1 IAt=     1 ISR=     1 T=0 IP=      2 IndIP=      2 IndIPD=      1 C=  3.813433D+00  0.000000D+00                             NZ=T
 IS=     1 IAt=     1 ISR=     1 T=0 IP=      3 IndIP=      3 IndIPD=      2 C=  3.434374D+00  0.000000D+00                             NZ=T
 IS=     1 IAt=     1 ISR=     1 T=0 IP=      4 IndIP=      4 IndIPD=      3 C=  3.515413D+00  0.000000D+00                             NZ=T
 IS=     1 IAt=     1 ISR=     1 T=0 IP=      5 IndIP=      5 IndIPD=      4 C=  4.060758D+00  0.000000D+00                             NZ=T
 IS=     1 IAt=     1 ISR=     1 T=0 IP=      6 IndIP=      6 IndIPD=      5 C=  5.179333D+00  0.000000D+00                             NZ=T
 IS=     1 IAt=     1 ISR=     1 T=0 IP=      7 IndIP=      7 IndIPD=      6 C=  6.891902D+00  0.000000D+00                             NZ=T
 IS=     1 IAt=     1 ISR=     1 T=0 IP=      8 IndIP=      8 IndIPD=      7 C=  8.834410D+00  0.000000D+00                             NZ=T
 IS=     1 IAt=     1 ISR=     1 T=0 IP=      9 IndIP=      9 IndIPD=      8 C=  9.927801D+00  0.000000D+00                             NZ=T
 IS=     1 IAt=     1 ISR=     1 T=0 IP=     10 IndIP=     10 IndIPD=      9 C=  8.506963D+00  0.000000D+00                             NZ=T
 IS=     1 IAt=     1 ISR=     1 T=0 IP=     11 IndIP=     11 IndIPD=     10 C=  4.238542D+00  0.000000D+00                             NZ=T
 IS=     1 IAt=     1 ISR=     1 T=0 IP=     12 IndIP=     12 IndIPD=     11 C=  7.671321D-01  0.000000D+00                             NZ=T
 IS=     1 IAt=     1 ISR=     1 T=0 IP=     13 IndIP=     13 IndIPD=     12 C=  1.545529D-02  0.000000D+00                             NZ=T
 IS=     1 IAt=     1 ISR=     1 T=0 IP=     14 IndIP=     14 IndIPD=     13 C= -7.655333D-04  0.000000D+00                             NZ=T
 IS=     1 IAt=     1 ISR=     1 T=0 IP=     15 IndIP=     15 IndIPD=     14 C= -4.682902D-05  0.000000D+00                             NZ=T
 IS=     1 IAt=     1 ISR=     1 T=0 IP=     16 IndIP=     16 IndIPD=     15 C=  1.566483D-07  0.000000D+00                             NZ=T
 IS=     2 IAt=     1 ISR=     2 T=0 IP=      1 IndIP=     17 IndIPD=      0 C= -5.887607D-03  0.000000D+00                             NZ=T
 IS=     2 IAt=     1 ISR=     2 T=0 IP=      2 IndIP=     18 IndIPD=      1 C= -1.640664D-02  0.000000D+00                             NZ=T
 IS=     2 IAt=     1 ISR=     2 T=0 IP=      3 IndIP=     19 IndIPD=      2 C= -6.318455D-02  0.000000D+00                             NZ=T
 IS=     2 IAt=     1 ISR=     2 T=0 IP=      4 IndIP=     20 IndIPD=      3 C= -1.793871D-01  0.000000D+00                             NZ=T
 IS=     2 IAt=     1 ISR=     2 T=0 IP=      5 IndIP=     21 IndIPD=      4 C= -5.037729D-01  0.000000D+00                             NZ=T
 IS=     2 IAt=     1 ISR=     2 T=0 IP=      6 IndIP=     22 IndIPD=      5 C= -1.016762D+00  0.000000D+00                             NZ=T
 IS=     2 IAt=     1 ISR=     2 T=0 IP=      7 IndIP=     23 IndIPD=      6 C= -1.279901D+00  0.000000D+00                             NZ=T
 IS=     2 IAt=     1 ISR=     2 T=0 IP=      8 IndIP=     24 IndIPD=      7 C=  2.073341D-02  0.000000D+00                             NZ=T
 IS=     2 IAt=     1 ISR=     2 T=0 IP=      9 IndIP=     25 IndIPD=      8 C=  1.703075D+00  0.000000D+00                             NZ=T
 IS=     2 IAt=     1 ISR=     2 T=0 IP=     10 IndIP=     26 IndIPD=      9 C=  1.214475D+00  0.000000D+00                             NZ=T
 IS=     2 IAt=     1 ISR=     2 T=0 IP=     11 IndIP=     27 IndIPD=     10 C=  1.576629D-01  0.000000D+00                             NZ=T
 IS=     2 IAt=     1 ISR=     2 T=0 IP=     12 IndIP=     28 IndIPD=     11 C=  3.191046D-04  0.000000D+00                             NZ=T
 IS=     2 IAt=     1 ISR=     2 T=0 IP=     13 IndIP=     29 IndIPD=     12 C= -3.310018D-07  0.000000D+00                             NZ=T
 IS=     3 IAt=     1 ISR=     3 T=0 IP=      1 IndIP=     30 IndIPD=      0 C= -4.888513D-04  0.000000D+00                             NZ=T
 IS=     3 IAt=     1 ISR=     3 T=0 IP=      2 IndIP=     31 IndIPD=      1 C=  1.563564D-04  0.000000D+00                             NZ=T
 IS=     3 IAt=     1 ISR=     3 T=0 IP=      3 IndIP=     32 IndIPD=      2 C= -1.617727D-03  0.000000D+00                             NZ=T
 IS=     3 IAt=     1 ISR=     3 T=0 IP=      4 IndIP=     33 IndIPD=      3 C= -5.448579D-03  0.000000D+00                             NZ=T
 IS=     3 IAt=     1 ISR=     3 T=0 IP=      5 IndIP=     34 IndIPD=      4 C=  1.429311D-03  0.000000D+00                             NZ=T
 IS=     3 IAt=     1 ISR=     3 T=0 IP=      6 IndIP=     35 IndIPD=      5 C=  1.128715D-02  0.000000D+00                             NZ=T
 IS=     3 IAt=     1 ISR=     3 T=0 IP=      7 IndIP=     36 IndIPD=      6 C= -8.607290D-02  0.000000D+00                             NZ=T
 IS=     3 IAt=     1 ISR=     3 T=0 IP=      8 IndIP=     37 IndIPD=      7 C= -2.458178D-01  0.000000D+00                             NZ=T
 IS=     3 IAt=     1 ISR=     3 T=0 IP=      9 IndIP=     38 IndIPD=      8 C= -1.873761D-02  0.000000D+00                             NZ=T
 IS=     3 IAt=     1 ISR=     3 T=0 IP=     10 IndIP=     39 IndIPD=      9 C=  2.833033D-01  0.000000D+00                             NZ=T
 IS=     3 IAt=     1 ISR=     3 T=0 IP=     11 IndIP=     40 IndIPD=     10 C=  3.063989D-02  0.000000D+00                             NZ=T
 IS=     3 IAt=     1 ISR=     3 T=0 IP=     12 IndIP=     41 IndIPD=     11 C=  3.698183D-02  0.000000D+00                             NZ=T
 IS=     3 IAt=     1 ISR=     3 T=0 IP=     13 IndIP=     42 IndIPD=     12 C=  6.873176D-05  0.000000D+00                             NZ=T
 IS=     4 IAt=     1 ISR=     4 T=0 IP=      1 IndIP=     43 IndIPD=      0 C= -1.201312D-04  0.000000D+00                             NZ=T
 IS=     4 IAt=     1 ISR=     4 T=0 IP=      2 IndIP=     44 IndIPD=      1 C=  1.126145D-04  0.000000D+00                             NZ=T
 IS=     4 IAt=     1 ISR=     4 T=0 IP=      3 IndIP=     45 IndIPD=      2 C=  2.445091D-04  0.000000D+00                             NZ=T
 IS=     4 IAt=     1 ISR=     4 T=0 IP=      4 IndIP=     46 IndIPD=      3 C=  8.933140D-03  0.000000D+00                             NZ=T
 IS=     4 IAt=     1 ISR=     4 T=0 IP=      5 IndIP=     47 IndIPD=      4 C= -3.356471D-03  0.000000D+00                             NZ=T
 IS=     4 IAt=     1 ISR=     4 T=0 IP=      6 IndIP=     48 IndIPD=      5 C= -3.300780D-02  0.000000D+00                             NZ=T
 IS=     4 IAt=     1 ISR=     4 T=0 IP=      7 IndIP=     49 IndIPD=      6 C= -6.622784D-02  0.000000D+00                             NZ=T
 IS=     4 IAt=     1 ISR=     4 T=0 IP=      8 IndIP=     50 IndIPD=      7 C=  7.942175D-02  0.000000D+00                             NZ=T
 IS=     4 IAt=     1 ISR=     4 T=0 IP=      9 IndIP=     51 IndIPD=      8 C=  1.322596D-02  0.000000D+00                             NZ=T
 IS=     4 IAt=     1 ISR=     4 T=0 IP=     10 IndIP=     52 IndIPD=      9 C= -1.755426D-04  0.000000D+00                             NZ=T
 IS=     5 IAt=     1 ISR=     5 T=0 IP=      1 IndIP=     53 IndIPD=      0 C= -1.114554D-03  0.000000D+00                             NZ=T
 IS=     5 IAt=     1 ISR=     5 T=0 IP=      2 IndIP=     54 IndIPD=      1 C= -6.041463D-03  0.000000D+00                             NZ=T
 IS=     5 IAt=     1 ISR=     5 T=0 IP=      3 IndIP=     55 IndIPD=      2 C= -1.073906D-02  0.000000D+00                             NZ=T
 IS=     5 IAt=     1 ISR=     5 T=0 IP=      4 IndIP=     56 IndIPD=      3 C= -3.587067D-02  0.000000D+00                             NZ=T
 IS=     5 IAt=     1 ISR=     5 T=0 IP=      5 IndIP=     57 IndIPD=      4 C= -3.995325D-03  0.000000D+00                             NZ=T
 IS=     5 IAt=     1 ISR=     5 T=0 IP=      6 IndIP=     58 IndIPD=      5 C=  1.681227D-01  0.000000D+00                             NZ=T
 IS=     5 IAt=     1 ISR=     5 T=0 IP=      7 IndIP=     59 IndIPD=      6 C=  4.936403D-01  0.000000D+00                             NZ=T
 IS=     5 IAt=     1 ISR=     5 T=0 IP=      8 IndIP=     60 IndIPD=      7 C= -5.267505D-03  0.000000D+00                             NZ=T
 IS=     5 IAt=     1 ISR=     5 T=0 IP=      9 IndIP=     61 IndIPD=      8 C= -4.413681D-01  0.000000D+00                             NZ=T
 IS=     5 IAt=     1 ISR=     5 T=0 IP=     10 IndIP=     62 IndIPD=      9 C= -1.583868D-01  0.000000D+00                             NZ=T
 IS=     5 IAt=     1 ISR=     5 T=0 IP=     11 IndIP=     63 IndIPD=     10 C= -4.890228D-05  0.000000D+00                             NZ=T
 IS=     6 IAt=     1 ISR=     6 T=1 IP=      1 IndIP=     64 IndIPD=      0 C=  0.000000D+00  1.492832D+01                             NZ=T
 IS=     6 IAt=     1 ISR=     6 T=1 IP=      2 IndIP=     65 IndIPD=      1 C=  0.000000D+00  1.186386D+01                             NZ=T
 IS=     6 IAt=     1 ISR=     6 T=1 IP=      3 IndIP=     66 IndIPD=      2 C=  0.000000D+00  1.363964D+01                             NZ=T
 IS=     6 IAt=     1 ISR=     6 T=1 IP=      4 IndIP=     67 IndIPD=      3 C=  0.000000D+00  1.701131D+01                             NZ=T
 IS=     6 IAt=     1 ISR=     6 T=1 IP=      5 IndIP=     68 IndIPD=      4 C=  0.000000D+00  2.027456D+01                             NZ=T
 IS=     6 IAt=     1 ISR=     6 T=1 IP=      6 IndIP=     69 IndIPD=      5 C=  0.000000D+00  2.175825D+01                             NZ=T
 IS=     6 IAt=     1 ISR=     6 T=1 IP=      7 IndIP=     70 IndIPD=      6 C=  0.000000D+00  1.951543D+01                             NZ=T
 IS=     6 IAt=     1 ISR=     6 T=1 IP=      8 IndIP=     71 IndIPD=      7 C=  0.000000D+00  1.337644D+01                             NZ=T
 IS=     6 IAt=     1 ISR=     6 T=1 IP=      9 IndIP=     72 IndIPD=      8 C=  0.000000D+00  6.262684D+00                             NZ=T
 IS=     6 IAt=     1 ISR=     6 T=1 IP=     10 IndIP=     73 IndIPD=      9 C=  0.000000D+00  1.460263D+00                             NZ=T
 IS=     6 IAt=     1 ISR=     6 T=1 IP=     11 IndIP=     74 IndIPD=     10 C=  0.000000D+00 -4.097528D-02                             NZ=T
 IS=     6 IAt=     1 ISR=     6 T=1 IP=     12 IndIP=     75 IndIPD=     11 C=  0.000000D+00  2.018840D-03                             NZ=T
 IS=     6 IAt=     1 ISR=     6 T=1 IP=     13 IndIP=     76 IndIPD=     12 C=  0.000000D+00 -2.682394D-04                             NZ=T
 IS=     7 IAt=     1 ISR=     7 T=1 IP=      1 IndIP=     77 IndIPD=      0 C=  0.000000D+00 -1.039768D-02                             NZ=T
 IS=     7 IAt=     1 ISR=     7 T=1 IP=      2 IndIP=     78 IndIPD=      1 C=  0.000000D+00  6.912419D-02                             NZ=T
 IS=     7 IAt=     1 ISR=     7 T=1 IP=      3 IndIP=     79 IndIPD=      2 C=  0.000000D+00 -1.142256D-01                             NZ=T
 IS=     7 IAt=     1 ISR=     7 T=1 IP=      4 IndIP=     80 IndIPD=      3 C=  0.000000D+00 -2.520224D-01                             NZ=T
 IS=     7 IAt=     1 ISR=     7 T=1 IP=      5 IndIP=     81 IndIPD=      4 C=  0.000000D+00 -5.200053D-03                             NZ=T
 IS=     7 IAt=     1 ISR=     7 T=1 IP=      6 IndIP=     82 IndIPD=      5 C=  0.000000D+00 -3.036177D-01                             NZ=T
 IS=     7 IAt=     1 ISR=     7 T=1 IP=      7 IndIP=     83 IndIPD=      6 C=  0.000000D+00  2.917568D-01                             NZ=T
 IS=     7 IAt=     1 ISR=     7 T=1 IP=      8 IndIP=     84 IndIPD=      7 C=  0.000000D+00  2.510122D-01                             NZ=T
 IS=     7 IAt=     1 ISR=     7 T=1 IP=      9 IndIP=     85 IndIPD=      8 C=  0.000000D+00  4.619664D-02                             NZ=T
 IS=     7 IAt=     1 ISR=     7 T=1 IP=     10 IndIP=     86 IndIPD=      9 C=  0.000000D+00 -4.033297D-03                             NZ=T
 IS=     8 IAt=     1 ISR=     8 T=1 IP=      1 IndIP=     87 IndIPD=      0 C=  0.000000D+00 -1.415458D-01                             NZ=T
 IS=     8 IAt=     1 ISR=     8 T=1 IP=      2 IndIP=     88 IndIPD=      1 C=  0.000000D+00 -3.355319D-01                             NZ=T
 IS=     8 IAt=     1 ISR=     8 T=1 IP=      3 IndIP=     89 IndIPD=      2 C=  0.000000D+00 -7.326992D-01                             NZ=T
 IS=     8 IAt=     1 ISR=     8 T=1 IP=      4 IndIP=     90 IndIPD=      3 C=  0.000000D+00 -5.769263D-01                             NZ=T
 IS=     8 IAt=     1 ISR=     8 T=1 IP=      5 IndIP=     91 IndIPD=      4 C=  0.000000D+00 -3.805995D-01                             NZ=T
 IS=     8 IAt=     1 ISR=     8 T=1 IP=      6 IndIP=     92 IndIPD=      5 C=  0.000000D+00  3.933910D-01                             NZ=T
 IS=     8 IAt=     1 ISR=     8 T=1 IP=      7 IndIP=     93 IndIPD=      6 C=  0.000000D+00  1.500813D+00                             NZ=T
 IS=     8 IAt=     1 ISR=     8 T=1 IP=      8 IndIP=     94 IndIPD=      7 C=  0.000000D+00  5.685554D-01                             NZ=T
 IS=     8 IAt=     1 ISR=     8 T=1 IP=      9 IndIP=     95 IndIPD=      8 C=  0.000000D+00 -2.876008D-02                             NZ=T
 IS=     8 IAt=     1 ISR=     8 T=1 IP=     10 IndIP=     96 IndIPD=      9 C=  0.000000D+00  3.734047D-03                             NZ=T
 IS=     9 IAt=     1 ISR=     9 T=1 IP=      1 IndIP=     97 IndIPD=      0 C=  0.000000D+00  1.639363D-02                             NZ=T
 IS=     9 IAt=     1 ISR=     9 T=1 IP=      2 IndIP=     98 IndIPD=      1 C=  0.000000D+00 -1.001700D-02                             NZ=T
 IS=     9 IAt=     1 ISR=     9 T=1 IP=      3 IndIP=     99 IndIPD=      2 C=  0.000000D+00 -5.991926D-02                             NZ=T
 IS=     9 IAt=     1 ISR=     9 T=1 IP=      4 IndIP=    100 IndIPD=      3 C=  0.000000D+00  3.117884D-04                             NZ=T
 IS=     9 IAt=     1 ISR=     9 T=1 IP=      5 IndIP=    101 IndIPD=      4 C=  0.000000D+00  3.507985D-02                             NZ=T
 IS=     9 IAt=     1 ISR=     9 T=1 IP=      6 IndIP=    102 IndIPD=      5 C=  0.000000D+00  1.087499D-01                             NZ=T
 IS=     9 IAt=     1 ISR=     9 T=1 IP=      7 IndIP=    103 IndIPD=      6 C=  0.000000D+00 -9.781412D-03                             NZ=T
 IS=     9 IAt=     1 ISR=     9 T=1 IP=      8 IndIP=    104 IndIPD=      7 C=  0.000000D+00 -6.029056D-02                             NZ=T
 IS=     9 IAt=     1 ISR=     9 T=1 IP=      9 IndIP=    105 IndIPD=      8 C=  0.000000D+00  1.225191D-02                             NZ=T
 IS=     9 IAt=     1 ISR=     9 T=1 IP=     10 IndIP=    106 IndIPD=      9 C=  0.000000D+00  2.829830D-02                             NZ=T
 IS=     9 IAt=     1 ISR=     9 T=1 IP=     11 IndIP=    107 IndIPD=     10 C=  0.000000D+00  5.939964D-03                             NZ=T
 IExCor= 1009 DFT=T Ex+Corr=PBE1PBE ExCW=0 ScaHFX=  0.250000
 ScaDFX=  0.750000  0.750000  1.000000  1.000000 ScalE2=  1.000000  1.000000
 IRadAn=      5 IRanWt=     -1 IRanGd=            0 ICorTp=0 IEmpDi=  4
 NAtoms=    1 NActive=    1 NUniq=    1 SFac= 1.00D+00 NAtFMM=   60 NAOKFM=F Big=F
 Integral buffers will be    131072 words long.
 Regular integral format.
 Two-electron integral symmetry is turned off.
 Nuclear density basis in /B/:
 Density basis set (Raw primitives coeffs):
 Atom Ca1      Shell     1 S   1     bf    1 -     1          0.000000000000          0.000000000000          0.000000000000
      0.3572221216D+09  0.2425005371D+14
 FoFCou: FMM=F IPFlag=           0 FMFlag=           0 FMFlg1=           0
         NFxFlg=           0 DoJE=F BraDBF=T KetDBF=T FulRan=T
         wScrn=  0.000000 ICntrl=       600 IOpCl=  3 I1Cent=           6 NGrid=           0
         NMat0=    1 NMatS0=      1 NMatT0=    0 NMatD0=    1 NMtDS0=    0 NMtDT0=    0
 Symmetry not used in FoFCou.
 FoFCou:  KetSym=T NOpSet=  1 NOpAb=1 NOp=  1.
 FoFCou:  CnvScl= 1.00D+00 Thresh= 1.00D-12 IAcrcy=      10.
 FoFCou: LinMIO=F DoNuc=F BraDBF=T KetDBF=T HaveP=F PDBF=F HaveZ=F HaveW=F
         NIJTC =       0 NIJTAt=       0 NIJTCD=       1 NIJTT =       1
         IJTBeg=       1 IJTEnd=       1 KLTBeg=       1 KLTEnd=       1
         IPTBeg=       1 IPTEnd=       1 IPTBCv=       1 IPTECv=       1
         IZTBeg=       1 IZTEnd=       0 IZTBCv=       1 IZTECv=       1
         IWTBeg=       1 IWTEnd=       1 IWTBCv=       1 IWTECv=       1
         INTBeg=       1 INTEnd=       0 IFTBCv=       1 IFTECv=       1
 NCel replicated for PrismC:     1
 CoulSu-InSpLW:  IPartL=    0 NPrtUS=   28 NPrtUL=    1 DoSpLW=F IThBeg=    0 IThEnd=   27 NThAct=   28.
 CoulSu:  IncTry=  1024 NBBP=              1 NTPThr=   100 NPartT=   28 Incr=           1 LDynOK=F GPUOK=F.
 CoulSu:  NPrtUS=  28 ThrOK=T IAlg=2 LenDen=           0 LWGrdD=           0 DoCopy=F ISkipM=0
          DoSpLW=F IThBeg=    0 IThEnd=   27.
 Enter PrismC:  IPart=  0 JobTyp=20 DoJE=F Cont=F.
 PrismC:  IPart=     0 DynPar=F LinDyn=F Incr=           1 UseFst=F UseS4=T ISplat=1.
 PrismC was handed   441000486 working-precision words and     1 shell-pairs
 Enter PrismC:  IPart= 10 JobTyp=20 DoJE=F Cont=F.
 Enter PrismC:  IPart= 22 JobTyp=20 DoJE=F Cont=F.
 PrismC:  IPart=    10 DynPar=F LinDyn=F Incr=           1 UseFst=F UseS4=T ISplat=1.
 Enter PrismC:  IPart=  6 JobTyp=20 DoJE=F Cont=F.
 PrismC was handed   441000486 working-precision words and     1 shell-pairs
 PrismC:  IPart=    22 DynPar=F LinDyn=F Incr=           1 UseFst=F UseS4=T ISplat=1.
 PrismC:  IPart=     6 DynPar=F LinDyn=F Incr=           1 UseFst=F UseS4=T ISplat=1.
 PrismC was handed   441000486 working-precision words and     1 shell-pairs
 PrismC was handed   441000486 working-precision words and     1 shell-pairs
 Enter PrismC:  IPart=  9 JobTyp=20 DoJE=F Cont=F.
 Enter PrismC:  IPart= 13 JobTyp=20 DoJE=F Cont=F.
 Enter PrismC:  IPart= 26 JobTyp=20 DoJE=F Cont=F.
 PrismC:  IPart=     9 DynPar=F LinDyn=F Incr=           1 UseFst=F UseS4=T ISplat=1.
 Enter PrismC:  IPart= 16 JobTyp=20 DoJE=F Cont=F.
 PrismC:  IPart=    13 DynPar=F LinDyn=F Incr=           1 UseFst=F UseS4=T ISplat=1.
 PrismC:  IPart=    16 DynPar=F LinDyn=F Incr=           1 UseFst=F UseS4=T ISplat=1.
 PrismC:  IPart=    26 DynPar=F LinDyn=F Incr=           1 UseFst=F UseS4=T ISplat=1.
 PrismC was handed   441000486 working-precision words and     1 shell-pairs
 PrismC was handed   441000486 working-precision words and     1 shell-pairs
 PrismC was handed   441000486 working-precision words and     1 shell-pairs
 PrismC was handed   441000486 working-precision words and     1 shell-pairs
 Enter PrismC:  IPart=  1 JobTyp=20 DoJE=F Cont=F.
 PrismC:  IPart=     1 DynPar=F LinDyn=F Incr=           1 UseFst=F UseS4=T ISplat=1.
 PrismC was handed   441000486 working-precision words and     1 shell-pairs
 Enter PrismC:  IPart= 11 JobTyp=20 DoJE=F Cont=F.
 Enter PrismC:  IPart= 21 JobTyp=20 DoJE=F Cont=F.
 Enter PrismC:  IPart=  8 JobTyp=20 DoJE=F Cont=F.
 Enter PrismC:  IPart= 17 JobTyp=20 DoJE=F Cont=F.
 PrismC:  IPart=    11 DynPar=F LinDyn=F Incr=           1 UseFst=F UseS4=T ISplat=1.
 Enter PrismC:  IPart= 19 JobTyp=20 DoJE=F Cont=F.
 PrismC:  IPart=    17 DynPar=F LinDyn=F Incr=           1 UseFst=F UseS4=T ISplat=1.
 PrismC:  IPart=    19 DynPar=F LinDyn=F Incr=           1 UseFst=F UseS4=T ISplat=1.
 Enter PrismC:  IPart= 23 JobTyp=20 DoJE=F Cont=F.
 PrismC:  IPart=    21 DynPar=F LinDyn=F Incr=           1 UseFst=F UseS4=T ISplat=1.
 Enter PrismC:  IPart=  7 JobTyp=20 DoJE=F Cont=F.
 PrismC:  IPart=     8 DynPar=F LinDyn=F Incr=           1 UseFst=F UseS4=T ISplat=1.
 PrismC:  IPart=    23 DynPar=F LinDyn=F Incr=           1 UseFst=F UseS4=T ISplat=1.
 PrismC:  IPart=     7 DynPar=F LinDyn=F Incr=           1 UseFst=F UseS4=T ISplat=1.
 PrismC was handed   441000486 working-precision words and     1 shell-pairs
 PrismC was handed   441000486 working-precision words and     1 shell-pairs
 PrismC was handed   441000486 working-precision words and     1 shell-pairs
 PrismC was handed   441000486 working-precision words and     1 shell-pairs
 PrismC was handed   441000486 working-precision words and     1 shell-pairs
 PrismC was handed   441000486 working-precision words and     1 shell-pairs
 Enter PrismC:  IPart= 14 JobTyp=20 DoJE=F Cont=F.
 PrismC was handed   441000486 working-precision words and     1 shell-pairs
 PrismC:  IPart=    14 DynPar=F LinDyn=F Incr=           1 UseFst=F UseS4=T ISplat=1.
 PrismC was handed   441000486 working-precision words and     1 shell-pairs
 Enter PrismC:  IPart=  2 JobTyp=20 DoJE=F Cont=F.
 Enter PrismC:  IPart= 20 JobTyp=20 DoJE=F Cont=F.
 PrismC:  IPart=     2 DynPar=F LinDyn=F Incr=           1 UseFst=F UseS4=T ISplat=1.
 PrismC was handed   441000486 working-precision words and     1 shell-pairs
 PrismC:  IPart=    20 DynPar=F LinDyn=F Incr=           1 UseFst=F UseS4=T ISplat=1.
 PrismC was handed   441000486 working-precision words and     1 shell-pairs
 Enter PrismC:  IPart= 12 JobTyp=20 DoJE=F Cont=F.
 Enter PrismC:  IPart= 25 JobTyp=20 DoJE=F Cont=F.
 PrismC:  IPart=    12 DynPar=F LinDyn=F Incr=           1 UseFst=F UseS4=T ISplat=1.
 PrismC was handed   441000486 working-precision words and     1 shell-pairs
 PrismC:  IPart=    25 DynPar=F LinDyn=F Incr=           1 UseFst=F UseS4=T ISplat=1.
 PrismC was handed   441000486 working-precision words and     1 shell-pairs
 Enter PrismC:  IPart=  4 JobTyp=20 DoJE=F Cont=F.
 Enter PrismC:  IPart= 15 JobTyp=20 DoJE=F Cont=F.
 PrismC:  IPart=     4 DynPar=F LinDyn=F Incr=           1 UseFst=F UseS4=T ISplat=1.
 Enter PrismC:  IPart= 18 JobTyp=20 DoJE=F Cont=F.
 PrismC was handed   441000486 working-precision words and     1 shell-pairs
 Enter PrismC:  IPart= 27 JobTyp=20 DoJE=F Cont=F.
 Enter PrismC:  IPart=  3 JobTyp=20 DoJE=F Cont=F.
 Enter PrismC:  IPart=  5 JobTyp=20 DoJE=F Cont=F.
 PrismC:  IPart=    15 DynPar=F LinDyn=F Incr=           1 UseFst=F UseS4=T ISplat=1.
 PrismC was handed   441000486 working-precision words and     1 shell-pairs
 Enter PrismC:  IPart= 24 JobTyp=20 DoJE=F Cont=F.
 PrismC:  IPart=     5 DynPar=F LinDyn=F Incr=           1 UseFst=F UseS4=T ISplat=1.
 PrismC:  IPart=    24 DynPar=F LinDyn=F Incr=           1 UseFst=F UseS4=T ISplat=1.
 PrismC was handed   441000486 working-precision words and     1 shell-pairs
 PrismC:  IPart=    27 DynPar=F LinDyn=F Incr=           1 UseFst=F UseS4=T ISplat=1.
 PrismC was handed   441000486 working-precision words and     1 shell-pairs
 PrismC was handed   441000486 working-precision words and     1 shell-pairs
 PrismC:  IPart=    18 DynPar=F LinDyn=F Incr=           1 UseFst=F UseS4=T ISplat=1.
 PrismC was handed   441000486 working-precision words and     1 shell-pairs
 PrismC:  IPart=     3 DynPar=F LinDyn=F Incr=           1 UseFst=F UseS4=T ISplat=1.
 PrismC was handed   441000486 working-precision words and     1 shell-pairs
 IPart=  6 NShTot=           0 NShNF=           0 NShFF=           0 MinMC=    1394
           NShCPU=           0 NBCPU=           0 AvBCPU=         0.0
           NShGPU=           0 NBGPU=           0 AvBGPU=         0.0
 IPart=  9 NShTot=           0 NShNF=           0 NShFF=           0 MinMC=    1394
           NShCPU=           0 NBCPU=           0 AvBCPU=         0.0
           NShGPU=           0 NBGPU=           0 AvBGPU=         0.0
 IPart= 10 NShTot=           0 NShNF=           0 NShFF=           0 MinMC=    1394
           NShCPU=           0 NBCPU=           0 AvBCPU=         0.0
           NShGPU=           0 NBGPU=           0 AvBGPU=         0.0
 IPart= 13 NShTot=           0 NShNF=           0 NShFF=           0 MinMC=    1394
           NShCPU=           0 NBCPU=           0 AvBCPU=         0.0
           NShGPU=           0 NBGPU=           0 AvBGPU=         0.0
 IPart=  1 NShTot=           0 NShNF=           0 NShFF=           0 MinMC=    1394
           NShCPU=           0 NBCPU=           0 AvBCPU=         0.0
           NShGPU=           0 NBGPU=           0 AvBGPU=         0.0
 IPart= 23 NShTot=           0 NShNF=           0 NShFF=           0 MinMC=    1394
           NShCPU=           0 NBCPU=           0 AvBCPU=         0.0
           NShGPU=           0 NBGPU=           0 AvBGPU=         0.0
 IPart= 19 NShTot=           0 NShNF=           0 NShFF=           0 MinMC=    1394
           NShCPU=           0 NBCPU=           0 AvBCPU=         0.0
           NShGPU=           0 NBGPU=           0 AvBGPU=         0.0
 IPart=  8 NShTot=           0 NShNF=           0 NShFF=           0 MinMC=    1394
           NShCPU=           0 NBCPU=           0 AvBCPU=         0.0
           NShGPU=           0 NBGPU=           0 AvBGPU=         0.0
 IPart= 17 NShTot=           0 NShNF=           0 NShFF=           0 MinMC=    1394
           NShCPU=           0 NBCPU=           0 AvBCPU=         0.0
           NShGPU=           0 NBGPU=           0 AvBGPU=         0.0
 IPart= 11 NShTot=           0 NShNF=           0 NShFF=           0 MinMC=    1394
           NShCPU=           0 NBCPU=           0 AvBCPU=         0.0
           NShGPU=           0 NBGPU=           0 AvBGPU=         0.0
 IPart= 14 NShTot=           0 NShNF=           0 NShFF=           0 MinMC=    1394
           NShCPU=           0 NBCPU=           0 AvBCPU=         0.0
           NShGPU=           0 NBGPU=           0 AvBGPU=         0.0
 IPart=  7 NShTot=           0 NShNF=           0 NShFF=           0 MinMC=    1394
           NShCPU=           0 NBCPU=           0 AvBCPU=         0.0
           NShGPU=           0 NBGPU=           0 AvBGPU=         0.0
 IPart= 21 NShTot=           0 NShNF=           0 NShFF=           0 MinMC=    1394
           NShCPU=           0 NBCPU=           0 AvBCPU=         0.0
           NShGPU=           0 NBGPU=           0 AvBGPU=         0.0
 IPart=  0 NShTot=           1 NShNF=           1 NShFF=           0 MinMC=    1394
           NShCPU=           1 NBCPU=           1 AvBCPU=         1.0
           NShGPU=           0 NBGPU=           0 AvBGPU=         0.0
 IPart=  2 NShTot=           0 NShNF=           0 NShFF=           0 MinMC=    1394
           NShCPU=           0 NBCPU=           0 AvBCPU=         0.0
           NShGPU=           0 NBGPU=           0 AvBGPU=         0.0
 IPart= 12 NShTot=           0 NShNF=           0 NShFF=           0 MinMC=    1394
           NShCPU=           0 NBCPU=           0 AvBCPU=         0.0
           NShGPU=           0 NBGPU=           0 AvBGPU=         0.0
 IPart= 15 NShTot=           0 NShNF=           0 NShFF=           0 MinMC=    1394
           NShCPU=           0 NBCPU=           0 AvBCPU=         0.0
           NShGPU=           0 NBGPU=           0 AvBGPU=         0.0
 IPart= 24 NShTot=           0 NShNF=           0 NShFF=           0 MinMC=    1394
           NShCPU=           0 NBCPU=           0 AvBCPU=         0.0
           NShGPU=           0 NBGPU=           0 AvBGPU=         0.0
 IPart= 27 NShTot=           0 NShNF=           0 NShFF=           0 MinMC=    1394
           NShCPU=           0 NBCPU=           0 AvBCPU=         0.0
           NShGPU=           0 NBGPU=           0 AvBGPU=         0.0
 IPart=  3 NShTot=           0 NShNF=           0 NShFF=           0 MinMC=    1394
           NShCPU=           0 NBCPU=           0 AvBCPU=         0.0
           NShGPU=           0 NBGPU=           0 AvBGPU=         0.0
 IPart=  5 NShTot=           0 NShNF=           0 NShFF=           0 MinMC=    1394
           NShCPU=           0 NBCPU=           0 AvBCPU=         0.0
           NShGPU=           0 NBGPU=           0 AvBGPU=         0.0
 IPart=  4 NShTot=           0 NShNF=           0 NShFF=           0 MinMC=    1394
           NShCPU=           0 NBCPU=           0 AvBCPU=         0.0
           NShGPU=           0 NBGPU=           0 AvBGPU=         0.0
 IPart= 26 NShTot=           0 NShNF=           0 NShFF=           0 MinMC=    1394
           NShCPU=           0 NBCPU=           0 AvBCPU=         0.0
           NShGPU=           0 NBGPU=           0 AvBGPU=         0.0
 IPart= 25 NShTot=           0 NShNF=           0 NShFF=           0 MinMC=    1394
           NShCPU=           0 NBCPU=           0 AvBCPU=         0.0
           NShGPU=           0 NBGPU=           0 AvBGPU=         0.0
 IPart= 18 NShTot=           0 NShNF=           0 NShFF=           0 MinMC=    1394
           NShCPU=           0 NBCPU=           0 AvBCPU=         0.0
           NShGPU=           0 NBGPU=           0 AvBGPU=         0.0
 IPart= 22 NShTot=           0 NShNF=           0 NShFF=           0 MinMC=    1394
           NShCPU=           0 NBCPU=           0 AvBCPU=         0.0
           NShGPU=           0 NBGPU=           0 AvBGPU=         0.0
 IPart= 16 NShTot=           0 NShNF=           0 NShFF=           0 MinMC=    1394
           NShCPU=           0 NBCPU=           0 AvBCPU=         0.0
           NShGPU=           0 NBGPU=           0 AvBGPU=         0.0
 IPart= 20 NShTot=           0 NShNF=           0 NShFF=           0 MinMC=    1394
           NShCPU=           0 NBCPU=           0 AvBCPU=         0.0
           NShGPU=           0 NBGPU=           0 AvBGPU=         0.0
 CoulSu:  NxtVal=             29 LenVP=      441000487 MinMC=    1394.
 Finite nuclear repulsion energy         0.0000000000.
 Leave Link  301 at Thu Nov 17 11:34:07 2022, MaxMem= 12348030976 cpu:               5.8 elap:               0.3
 (Enter /sw/contrib/gaussian/g16/C01_v2/g16/l302.exe)
 Using DK2 one-electron Hamiltonian.
 NPDir=0 NMtPBC=     1 NCelOv=     1 NCel=       1 NClECP=     1 NCelD=      1
         NCelK=      1 NCelE2=     1 NClLst=     1 CellRange=     0.0.
 One-electron integrals computed using PRISM.
 Entering OneElI...
 Calculate overlap and kinetic energy integrals
    NBasis =  17  MinDer = 0  MaxDer = 0
 Requested accuracy = 0.1000D-12
 PrmmSu-InSpLW:  IPartL=    0 NPrtUS=   28 NPrtUL=    1 DoSpLW=F IThBeg=    0 IThEnd=   27 NThAct=   28.
 PrSmSu:  IncTry=   512 NBBP=             45 NTPThr=   100 NPartT=   28 Incr=           1 LDynOK=F GPUOK=F.
 PrsmSu:  NPrtUS=  28 ThrOK=T IAlg=1 LenDen=           0 ISkipM=0 DoSpLW=F IThBeg=    0 IThEnd=   27.
 Prism:   IPart=     0 DynPar=F LinDyn=F Incr=           1.
 PRISM was handed   440947400 working-precision words and    45 shell-pairs
 PRISM was handed   440947400 working-precision words and    45 shell-pairs
 PRISM was handed   440947400 working-precision words and    45 shell-pairs
 PRISM was handed   440947400 working-precision words and    45 shell-pairs
 PRISM was handed   440947400 working-precision words and    45 shell-pairs
 PRISM was handed   440947400 working-precision words and    45 shell-pairs
 PRISM was handed   440947400 working-precision words and    45 shell-pairs
 PRISM was handed   440947400 working-precision words and    45 shell-pairs
 PRISM was handed   440947400 working-precision words and    45 shell-pairs
 PRISM was handed   440947400 working-precision words and    45 shell-pairs
 PRISM was handed   440947400 working-precision words and    45 shell-pairs
 IPart= 21 NShTot=           0 NBatch=           0 AvBLen=         0.0
 IPart=  8 NShTot=           0 NBatch=           0 AvBLen=         0.0
 IPart= 24 NShTot=           0 NBatch=           0 AvBLen=         0.0
 IPart= 16 NShTot=           0 NBatch=           0 AvBLen=         0.0
 IPart= 19 NShTot=           0 NBatch=           0 AvBLen=         0.0
 IPart=  5 NShTot=           0 NBatch=           0 AvBLen=         0.0
 IPart=  9 NShTot=           0 NBatch=           0 AvBLen=         0.0
 PRISM was handed   440947400 working-precision words and    45 shell-pairs
 IPart= 15 NShTot=           0 NBatch=           0 AvBLen=         0.0
 PRISM was handed   440947400 working-precision words and    45 shell-pairs
 PRISM was handed   440947400 working-precision words and    45 shell-pairs
 PRISM was handed   440947400 working-precision words and    45 shell-pairs
 IPart= 10 NShTot=           0 NBatch=           0 AvBLen=         0.0
 IPart=  7 NShTot=           0 NBatch=           0 AvBLen=         0.0
 PRISM was handed   440947400 working-precision words and    45 shell-pairs
 IPart=  6 NShTot=           0 NBatch=           0 AvBLen=         0.0
 IPart=  4 NShTot=           1 NBatch=           1 AvBLen=         1.0
 PRISM was handed   440947400 working-precision words and    45 shell-pairs
 PRISM was handed   440947400 working-precision words and    45 shell-pairs
 PRISM was handed   440947400 working-precision words and    45 shell-pairs
 PRISM was handed   440947400 working-precision words and    45 shell-pairs
 PRISM was handed   440947400 working-precision words and    45 shell-pairs
 PRISM was handed   440947400 working-precision words and    45 shell-pairs
 PRISM was handed   440947400 working-precision words and    45 shell-pairs
 IPart= 17 NShTot=           0 NBatch=           0 AvBLen=         0.0
 PRISM was handed   440947400 working-precision words and    45 shell-pairs
 PRISM was handed   440947400 working-precision words and    45 shell-pairs
 PRISM was handed   440947400 working-precision words and    45 shell-pairs
 PRISM was handed   440947400 working-precision words and    45 shell-pairs
 IPart=  2 NShTot=           5 NBatch=           5 AvBLen=         1.0
 PRISM was handed   440947400 working-precision words and    45 shell-pairs
 IPart=  1 NShTot=          13 NBatch=          13 AvBLen=         1.0
 IPart= 11 NShTot=           0 NBatch=           0 AvBLen=         0.0
 IPart= 27 NShTot=           0 NBatch=           0 AvBLen=         0.0
 IPart=  3 NShTot=           1 NBatch=           1 AvBLen=         1.0
 IPart= 12 NShTot=           0 NBatch=           0 AvBLen=         0.0
 IPart= 14 NShTot=           0 NBatch=           0 AvBLen=         0.0
 IPart= 23 NShTot=           0 NBatch=           0 AvBLen=         0.0
 IPart= 25 NShTot=           0 NBatch=           0 AvBLen=         0.0
 IPart= 13 NShTot=           0 NBatch=           0 AvBLen=         0.0
 IPart= 20 NShTot=           0 NBatch=           0 AvBLen=         0.0
 IPart= 26 NShTot=           0 NBatch=           0 AvBLen=         0.0
 IPart= 22 NShTot=           0 NBatch=           0 AvBLen=         0.0
 IPart=  0 NShTot=          25 NBatch=          25 AvBLen=         1.0
 IPart= 18 NShTot=           0 NBatch=           0 AvBLen=         0.0
 PrSmSu:  NxtVal=             29.
 *** Overlap *** 
                1             2             3             4             5 
      1  0.100000D+01
      2  0.280143D+00  0.100000D+01
      3  0.825870D-02  0.207602D+00  0.100000D+01
      4 -0.139014D-03  0.118574D-01  0.837455D+00  0.100000D+01
      5 -0.816643D-02 -0.340786D+00 -0.664536D+00 -0.271586D+00  0.100000D+01
      6  0.000000D+00  0.000000D+00  0.000000D+00  0.000000D+00  0.000000D+00
      7  0.000000D+00  0.000000D+00  0.000000D+00  0.000000D+00  0.000000D+00
      8  0.000000D+00  0.000000D+00  0.000000D+00  0.000000D+00  0.000000D+00
      9  0.000000D+00  0.000000D+00  0.000000D+00  0.000000D+00  0.000000D+00
     10  0.000000D+00  0.000000D+00  0.000000D+00  0.000000D+00  0.000000D+00
     11  0.000000D+00  0.000000D+00  0.000000D+00  0.000000D+00  0.000000D+00
     12  0.000000D+00  0.000000D+00  0.000000D+00  0.000000D+00  0.000000D+00
     13  0.000000D+00  0.000000D+00  0.000000D+00  0.000000D+00  0.000000D+00
     14  0.000000D+00  0.000000D+00  0.000000D+00  0.000000D+00  0.000000D+00
     15  0.000000D+00  0.000000D+00  0.000000D+00  0.000000D+00  0.000000D+00
     16  0.000000D+00  0.000000D+00  0.000000D+00  0.000000D+00  0.000000D+00
     17  0.000000D+00  0.000000D+00  0.000000D+00  0.000000D+00  0.000000D+00
                6             7             8             9            10 
      6  0.100000D+01
      7  0.000000D+00  0.100000D+01
      8  0.000000D+00  0.000000D+00  0.100000D+01
      9  0.677856D-01  0.000000D+00  0.000000D+00  0.100000D+01
     10  0.000000D+00  0.677856D-01  0.000000D+00  0.000000D+00  0.100000D+01
     11  0.000000D+00  0.000000D+00  0.677856D-01  0.000000D+00  0.000000D+00
     12  0.361505D+00  0.000000D+00  0.000000D+00  0.501313D+00  0.000000D+00
     13  0.000000D+00  0.361505D+00  0.000000D+00  0.000000D+00  0.501313D+00
     14  0.000000D+00  0.000000D+00  0.361505D+00  0.000000D+00  0.000000D+00
     15  0.642670D-02  0.000000D+00  0.000000D+00  0.125655D+00  0.000000D+00
     16  0.000000D+00  0.642670D-02  0.000000D+00  0.000000D+00  0.125655D+00
     17  0.000000D+00  0.000000D+00  0.642670D-02  0.000000D+00  0.000000D+00
               11            12            13            14            15 
     11  0.100000D+01
     12  0.000000D+00  0.100000D+01
     13  0.000000D+00  0.000000D+00  0.100000D+01
     14  0.501313D+00  0.000000D+00  0.000000D+00  0.100000D+01
     15  0.000000D+00  0.183594D+00  0.000000D+00  0.000000D+00  0.100000D+01
     16  0.000000D+00  0.000000D+00  0.183594D+00  0.000000D+00  0.000000D+00
     17  0.125655D+00  0.000000D+00  0.000000D+00  0.183594D+00  0.000000D+00
               16            17 
     16  0.100000D+01
     17  0.000000D+00  0.100000D+01
 *** Kinetic Energy *** 
                1             2             3             4             5 
      1  0.199227D+03
      2 -0.104219D+02  0.932178D+01
      3 -0.587034D+00 -0.408987D+00  0.305367D+00
      4 -0.865189D-02 -0.105160D+00 -0.118486D-01  0.941690D-01
      5  0.872925D+00  0.875455D+00 -0.558042D+00  0.907342D-01  0.110847D+01
      6  0.000000D+00  0.000000D+00  0.000000D+00  0.000000D+00  0.000000D+00
      7  0.000000D+00  0.000000D+00  0.000000D+00  0.000000D+00  0.000000D+00
      8  0.000000D+00  0.000000D+00  0.000000D+00  0.000000D+00  0.000000D+00
      9  0.000000D+00  0.000000D+00  0.000000D+00  0.000000D+00  0.000000D+00
     10  0.000000D+00  0.000000D+00  0.000000D+00  0.000000D+00  0.000000D+00
     11  0.000000D+00  0.000000D+00  0.000000D+00  0.000000D+00  0.000000D+00
     12  0.000000D+00  0.000000D+00  0.000000D+00  0.000000D+00  0.000000D+00
     13  0.000000D+00  0.000000D+00  0.000000D+00  0.000000D+00  0.000000D+00
     14  0.000000D+00  0.000000D+00  0.000000D+00  0.000000D+00  0.000000D+00
     15  0.000000D+00  0.000000D+00  0.000000D+00  0.000000D+00  0.000000D+00
     16  0.000000D+00  0.000000D+00  0.000000D+00  0.000000D+00  0.000000D+00
     17  0.000000D+00  0.000000D+00  0.000000D+00  0.000000D+00  0.000000D+00
                6             7             8             9            10 
      6  0.331116D+02
      7  0.000000D+00  0.331116D+02
      8  0.000000D+00  0.000000D+00  0.331116D+02
      9 -0.359903D+00  0.000000D+00  0.000000D+00  0.878298D+00
     10  0.000000D+00 -0.359903D+00  0.000000D+00  0.000000D+00  0.878298D+00
     11  0.000000D+00  0.000000D+00 -0.359903D+00  0.000000D+00  0.000000D+00
     12  0.146802D+01  0.000000D+00  0.000000D+00  0.772743D+00  0.000000D+00
     13  0.000000D+00  0.146802D+01  0.000000D+00  0.000000D+00  0.772743D+00
     14  0.000000D+00  0.000000D+00  0.146802D+01  0.000000D+00  0.000000D+00
     15  0.119518D+00  0.000000D+00  0.000000D+00  0.182915D-02  0.000000D+00
     16  0.000000D+00  0.119518D+00  0.000000D+00  0.000000D+00  0.182915D-02
     17  0.000000D+00  0.000000D+00  0.119518D+00  0.000000D+00  0.000000D+00
               11            12            13            14            15 
     11  0.878298D+00
     12  0.000000D+00  0.319945D+01
     13  0.000000D+00  0.000000D+00  0.319945D+01
     14  0.772743D+00  0.000000D+00  0.000000D+00  0.319945D+01
     15  0.000000D+00  0.436886D-01  0.000000D+00  0.000000D+00  0.122326D+00
     16  0.000000D+00  0.000000D+00  0.436886D-01  0.000000D+00  0.000000D+00
     17  0.182915D-02  0.000000D+00  0.000000D+00  0.436886D-01  0.000000D+00
               16            17 
     16  0.122326D+00
     17  0.000000D+00  0.122326D+00
 FoFCou: FMM=F IPFlag=           0 FMFlag=      100000 FMFlg1=           0
         NFxFlg=           0 DoJE=T BraDBF=F KetDBF=T FulRan=T
         wScrn=  0.000000 ICntrl=       500 IOpCl=  0 I1Cent=           4 NGrid=           0
         NMat0=    1 NMatS0=      1 NMatT0=    0 NMatD0=    1 NMtDS0=    0 NMtDT0=    0
 Symmetry not used in FoFCou.
 FoFCou:  KetSym=T NOpSet=  1 NOpAb=1 NOp=  1.
 FoFCou:  CnvScl= 1.00D+00 Thresh= 1.00D-13 IAcrcy=      10.
 FoFCou: LinMIO=F DoNuc=F BraDBF=F KetDBF=T HaveP=T PDBF=T HaveZ=F HaveW=F
         NIJTC =       3 NIJTAt=       0 NIJTCD=       1 NIJTT =       4
         IJTBeg=       1 IJTEnd=       3 KLTBeg=       4 KLTEnd=       4
         IPTBeg=       4 IPTEnd=       4 IPTBCv=       4 IPTECv=       4
         IZTBeg=       1 IZTEnd=       3 IZTBCv=       1 IZTECv=       3
         IWTBeg=       4 IWTEnd=       4 IWTBCv=       4 IWTECv=       4
         INTBeg=       1 INTEnd=       0 IFTBCv=       1 IFTECv=       3
 CoulSu-InSpLW:  IPartL=    0 NPrtUS=   28 NPrtUL=    1 DoSpLW=F IThBeg=    0 IThEnd=   27 NThAct=   28.
 CoulSu:  IncTry=  1024 NBBP=             45 NTPThr=   100 NPartT=   28 Incr=           1 LDynOK=F GPUOK=F.
 CoulSu:  NPrtUS=  28 ThrOK=T IAlg=1 LenDen=         236 LWGrdD=           0 DoCopy=T ISkipM=0
          DoSpLW=F IThBeg=    0 IThEnd=   27.
 Enter PrismC:  IPart=  0 JobTyp=20 DoJE=T Cont=T.
 PrismC:  IPart=     0 DynPar=F LinDyn=F Incr=           1 UseFst=F UseS4=T ISplat=2.
 PrismC was handed   440947295 working-precision words and    45 shell-pairs
 Enter PrismC:  IPart= 21 JobTyp=20 DoJE=T Cont=T.
 Enter PrismC:  IPart= 17 JobTyp=20 DoJE=T Cont=T.
 PrismC:  IPart=    21 DynPar=F LinDyn=F Incr=           1 UseFst=F UseS4=T ISplat=2.
 Enter PrismC:  IPart= 19 JobTyp=20 DoJE=T Cont=T.
 Enter PrismC:  IPart= 23 JobTyp=20 DoJE=T Cont=T.
 Enter PrismC:  IPart= 20 JobTyp=20 DoJE=T Cont=T.
 Enter PrismC:  IPart=  8 JobTyp=20 DoJE=T Cont=T.
 Enter PrismC:  IPart= 18 JobTyp=20 DoJE=T Cont=T.
 PrismC was handed   440947295 working-precision words and    45 shell-pairs
 Enter PrismC:  IPart= 22 JobTyp=20 DoJE=T Cont=T.
 Enter PrismC:  IPart=  4 JobTyp=20 DoJE=T Cont=T.
 Enter PrismC:  IPart= 14 JobTyp=20 DoJE=T Cont=T.
 Enter PrismC:  IPart= 12 JobTyp=20 DoJE=T Cont=T.
 Enter PrismC:  IPart= 15 JobTyp=20 DoJE=T Cont=T.
 Enter PrismC:  IPart=  2 JobTyp=20 DoJE=T Cont=T.
 Enter PrismC:  IPart= 10 JobTyp=20 DoJE=T Cont=T.
 Enter PrismC:  IPart=  3 JobTyp=20 DoJE=T Cont=T.
 Enter PrismC:  IPart=  6 JobTyp=20 DoJE=T Cont=T.
 Enter PrismC:  IPart= 11 JobTyp=20 DoJE=T Cont=T.
 Enter PrismC:  IPart=  5 JobTyp=20 DoJE=T Cont=T.
 Enter PrismC:  IPart= 16 JobTyp=20 DoJE=T Cont=T.
 Enter PrismC:  IPart=  9 JobTyp=20 DoJE=T Cont=T.
 Enter PrismC:  IPart= 24 JobTyp=20 DoJE=T Cont=T.
 Enter PrismC:  IPart= 27 JobTyp=20 DoJE=T Cont=T.
 Enter PrismC:  IPart= 25 JobTyp=20 DoJE=T Cont=T.
 Enter PrismC:  IPart= 26 JobTyp=20 DoJE=T Cont=T.
 Enter PrismC:  IPart=  7 JobTyp=20 DoJE=T Cont=T.
 PrismC:  IPart=    17 DynPar=F LinDyn=F Incr=           1 UseFst=F UseS4=T ISplat=2.
 Enter PrismC:  IPart=  1 JobTyp=20 DoJE=T Cont=T.
 PrismC:  IPart=    18 DynPar=F LinDyn=F Incr=           1 UseFst=F UseS4=T ISplat=2.
 Enter PrismC:  IPart= 13 JobTyp=20 DoJE=T Cont=T.
 PrismC:  IPart=    25 DynPar=F LinDyn=F Incr=           1 UseFst=F UseS4=T ISplat=2.
 PrismC:  IPart=     8 DynPar=F LinDyn=F Incr=           1 UseFst=F UseS4=T ISplat=2.
 PrismC:  IPart=    27 DynPar=F LinDyn=F Incr=           1 UseFst=F UseS4=T ISplat=2.
 PrismC:  IPart=    23 DynPar=F LinDyn=F Incr=           1 UseFst=F UseS4=T ISplat=2.
 PrismC:  IPart=     2 DynPar=F LinDyn=F Incr=           1 UseFst=F UseS4=T ISplat=2.
 PrismC:  IPart=     4 DynPar=F LinDyn=F Incr=           1 UseFst=F UseS4=T ISplat=2.
 PrismC:  IPart=    15 DynPar=F LinDyn=F Incr=           1 UseFst=F UseS4=T ISplat=2.
 PrismC:  IPart=    24 DynPar=F LinDyn=F Incr=           1 UseFst=F UseS4=T ISplat=2.
 PrismC was handed   440947295 working-precision words and    45 shell-pairs
 PrismC was handed   440947295 working-precision words and    45 shell-pairs
 PrismC was handed   440947295 working-precision words and    45 shell-pairs
 PrismC was handed   440947295 working-precision words and    45 shell-pairs
 PrismC was handed   440947295 working-precision words and    45 shell-pairs
 PrismC was handed   440947295 working-precision words and    45 shell-pairs
 PrismC was handed   440947295 working-precision words and    45 shell-pairs
 PrismC was handed   440947295 working-precision words and    45 shell-pairs
 PrismC:  IPart=    22 DynPar=F LinDyn=F Incr=           1 UseFst=F UseS4=T ISplat=2.
 PrismC was handed   440947295 working-precision words and    45 shell-pairs
 PrismC was handed   440947295 working-precision words and    45 shell-pairs
 PrismC:  IPart=     9 DynPar=F LinDyn=F Incr=           1 UseFst=F UseS4=T ISplat=2.
 PrismC was handed   440947295 working-precision words and    45 shell-pairs
 PrismC was handed   440947295 working-precision words and    45 shell-pairs
 PrismC:  IPart=    11 DynPar=F LinDyn=F Incr=           1 UseFst=F UseS4=T ISplat=2.
 PrismC was handed   440947295 working-precision words and    45 shell-pairs
 PrismC:  IPart=    26 DynPar=F LinDyn=F Incr=           1 UseFst=F UseS4=T ISplat=2.
 PrismC:  IPart=     1 DynPar=F LinDyn=F Incr=           1 UseFst=F UseS4=T ISplat=2.
 PrismC:  IPart=     3 DynPar=F LinDyn=F Incr=           1 UseFst=F UseS4=T ISplat=2.
 PrismC was handed   440947295 working-precision words and    45 shell-pairs
 PrismC:  IPart=     5 DynPar=F LinDyn=F Incr=           1 UseFst=F UseS4=T ISplat=2.
 PrismC was handed   440947295 working-precision words and    45 shell-pairs
 PrismC:  IPart=    16 DynPar=F LinDyn=F Incr=           1 UseFst=F UseS4=T ISplat=2.
 PrismC was handed   440947295 working-precision words and    45 shell-pairs
 PrismC:  IPart=     6 DynPar=F LinDyn=F Incr=           1 UseFst=F UseS4=T ISplat=2.
 PrismC was handed   440947295 working-precision words and    45 shell-pairs
 PrismC:  IPart=    13 DynPar=F LinDyn=F Incr=           1 UseFst=F UseS4=T ISplat=2.
 PrismC was handed   440947295 working-precision words and    45 shell-pairs
 PrismC was handed   440947295 working-precision words and    45 shell-pairs
 PrismC was handed   440947295 working-precision words and    45 shell-pairs
 PrismC:  IPart=    10 DynPar=F LinDyn=F Incr=           1 UseFst=F UseS4=T ISplat=2.
 PrismC was handed   440947295 working-precision words and    45 shell-pairs
 PrismC:  IPart=     7 DynPar=F LinDyn=F Incr=           1 UseFst=F UseS4=T ISplat=2.
 PrismC:  IPart=    20 DynPar=F LinDyn=F Incr=           1 UseFst=F UseS4=T ISplat=2.
 PrismC was handed   440947295 working-precision words and    45 shell-pairs
 PrismC was handed   440947295 working-precision words and    45 shell-pairs
 PrismC:  IPart=    14 DynPar=F LinDyn=F Incr=           1 UseFst=F UseS4=T ISplat=2.
 PrismC was handed   440947295 working-precision words and    45 shell-pairs
 PrismC:  IPart=    19 DynPar=F LinDyn=F Incr=           1 UseFst=F UseS4=T ISplat=2.
 PrismC was handed   440947295 working-precision words and    45 shell-pairs
 PrismC:  IPart=    12 DynPar=F LinDyn=F Incr=           1 UseFst=F UseS4=T ISplat=2.
 PrismC was handed   440947295 working-precision words and    45 shell-pairs
 IPart= 18 NShTot=           0 NShNF=           0 NShFF=           0 MinMC=      21
           NShCPU=           0 NBCPU=           0 AvBCPU=         0.0
           NShGPU=           0 NBGPU=           0 AvBGPU=         0.0
 IPart=  4 NShTot=           0 NShNF=           0 NShFF=           0 MinMC=      21
           NShCPU=           0 NBCPU=           0 AvBCPU=         0.0
           NShGPU=           0 NBGPU=           0 AvBGPU=         0.0
 IPart=  0 NShTot=          45 NShNF=          45 NShFF=           0 MinMC=      21
           NShCPU=          45 NBCPU=          45 AvBCPU=         1.0
           NShGPU=           0 NBGPU=           0 AvBGPU=         0.0
 IPart= 15 NShTot=           0 NShNF=           0 NShFF=           0 MinMC=      21
           NShCPU=           0 NBCPU=           0 AvBCPU=         0.0
           NShGPU=           0 NBGPU=           0 AvBGPU=         0.0
 IPart=  8 NShTot=           0 NShNF=           0 NShFF=           0 MinMC=      21
           NShCPU=           0 NBCPU=           0 AvBCPU=         0.0
           NShGPU=           0 NBGPU=           0 AvBGPU=         0.0
 IPart= 11 NShTot=           0 NShNF=           0 NShFF=           0 MinMC=      21
           NShCPU=           0 NBCPU=           0 AvBCPU=         0.0
           NShGPU=           0 NBGPU=           0 AvBGPU=         0.0
 IPart= 21 NShTot=           0 NShNF=           0 NShFF=           0 MinMC=      21
           NShCPU=           0 NBCPU=           0 AvBCPU=         0.0
           NShGPU=           0 NBGPU=           0 AvBGPU=         0.0
 IPart= 23 NShTot=           0 NShNF=           0 NShFF=           0 MinMC=      21
           NShCPU=           0 NBCPU=           0 AvBCPU=         0.0
           NShGPU=           0 NBGPU=           0 AvBGPU=         0.0
 IPart= 24 NShTot=           0 NShNF=           0 NShFF=           0 MinMC=      21
           NShCPU=           0 NBCPU=           0 AvBCPU=         0.0
           NShGPU=           0 NBGPU=           0 AvBGPU=         0.0
 IPart=  9 NShTot=           0 NShNF=           0 NShFF=           0 MinMC=      21
           NShCPU=           0 NBCPU=           0 AvBCPU=         0.0
           NShGPU=           0 NBGPU=           0 AvBGPU=         0.0
 IPart=  6 NShTot=           0 NShNF=           0 NShFF=           0 MinMC=      21
           NShCPU=           0 NBCPU=           0 AvBCPU=         0.0
           NShGPU=           0 NBGPU=           0 AvBGPU=         0.0
 IPart=  3 NShTot=           0 NShNF=           0 NShFF=           0 MinMC=      21
           NShCPU=           0 NBCPU=           0 AvBCPU=         0.0
           NShGPU=           0 NBGPU=           0 AvBGPU=         0.0
 IPart= 26 NShTot=           0 NShNF=           0 NShFF=           0 MinMC=      21
           NShCPU=           0 NBCPU=           0 AvBCPU=         0.0
           NShGPU=           0 NBGPU=           0 AvBGPU=         0.0
 IPart= 27 NShTot=           0 NShNF=           0 NShFF=           0 MinMC=      21
           NShCPU=           0 NBCPU=           0 AvBCPU=         0.0
           NShGPU=           0 NBGPU=           0 AvBGPU=         0.0
 IPart= 22 NShTot=           0 NShNF=           0 NShFF=           0 MinMC=      21
           NShCPU=           0 NBCPU=           0 AvBCPU=         0.0
           NShGPU=           0 NBGPU=           0 AvBGPU=         0.0
 IPart=  1 NShTot=           0 NShNF=           0 NShFF=           0 MinMC=      21
           NShCPU=           0 NBCPU=           0 AvBCPU=         0.0
           NShGPU=           0 NBGPU=           0 AvBGPU=         0.0
 IPart= 12 NShTot=           0 NShNF=           0 NShFF=           0 MinMC=      21
           NShCPU=           0 NBCPU=           0 AvBCPU=         0.0
           NShGPU=           0 NBGPU=           0 AvBGPU=         0.0
 IPart= 19 NShTot=           0 NShNF=           0 NShFF=           0 MinMC=      21
           NShCPU=           0 NBCPU=           0 AvBCPU=         0.0
           NShGPU=           0 NBGPU=           0 AvBGPU=         0.0
 IPart= 16 NShTot=           0 NShNF=           0 NShFF=           0 MinMC=      21
           NShCPU=           0 NBCPU=           0 AvBCPU=         0.0
           NShGPU=           0 NBGPU=           0 AvBGPU=         0.0
 IPart= 17 NShTot=           0 NShNF=           0 NShFF=           0 MinMC=      21
           NShCPU=           0 NBCPU=           0 AvBCPU=         0.0
           NShGPU=           0 NBGPU=           0 AvBGPU=         0.0
 IPart=  2 NShTot=           0 NShNF=           0 NShFF=           0 MinMC=      21
           NShCPU=           0 NBCPU=           0 AvBCPU=         0.0
           NShGPU=           0 NBGPU=           0 AvBGPU=         0.0
 IPart= 10 NShTot=           0 NShNF=           0 NShFF=           0 MinMC=      21
           NShCPU=           0 NBCPU=           0 AvBCPU=         0.0
           NShGPU=           0 NBGPU=           0 AvBGPU=         0.0
 IPart=  5 NShTot=           0 NShNF=           0 NShFF=           0 MinMC=      21
           NShCPU=           0 NBCPU=           0 AvBCPU=         0.0
           NShGPU=           0 NBGPU=           0 AvBGPU=         0.0
 IPart= 13 NShTot=           0 NShNF=           0 NShFF=           0 MinMC=      21
           NShCPU=           0 NBCPU=           0 AvBCPU=         0.0
           NShGPU=           0 NBGPU=           0 AvBGPU=         0.0
 IPart= 20 NShTot=           0 NShNF=           0 NShFF=           0 MinMC=      21
           NShCPU=           0 NBCPU=           0 AvBCPU=         0.0
           NShGPU=           0 NBGPU=           0 AvBGPU=         0.0
 IPart=  7 NShTot=           0 NShNF=           0 NShFF=           0 MinMC=      21
           NShCPU=           0 NBCPU=           0 AvBCPU=         0.0
           NShGPU=           0 NBGPU=           0 AvBGPU=         0.0
 IPart= 25 NShTot=           0 NShNF=           0 NShFF=           0 MinMC=      21
           NShCPU=           0 NBCPU=           0 AvBCPU=         0.0
           NShGPU=           0 NBGPU=           0 AvBGPU=         0.0
 IPart= 14 NShTot=           0 NShNF=           0 NShFF=           0 MinMC=      21
           NShCPU=           0 NBCPU=           0 AvBCPU=         0.0
           NShGPU=           0 NBGPU=           0 AvBGPU=         0.0
 CoulSu:  NxtVal=             29 LenVP=      440947296 MinMC=      21.
 CoulSu-InSpLW:  IPartL=    0 NPrtUS=   28 NPrtUL=    1 DoSpLW=F IThBeg=    0 IThEnd=   27 NThAct=   28.
 CoulSu:  IncTry=  1024 NBBP=             45 NTPThr=   100 NPartT=   28 Incr=           1 LDynOK=F GPUOK=F.
 CoulSu:  NPrtUS=  28 ThrOK=T IAlg=1 LenDen=       25611 LWGrdD=           0 DoCopy=T ISkipM=0
          DoSpLW=F IThBeg=    0 IThEnd=   27.
 Enter PrismC:  IPart=  0 JobTyp=20 DoJE=T Cont=F.
 PrismC:  IPart=     0 DynPar=F LinDyn=F Incr=           1 UseFst=F UseS4=T ISplat=2.
 PrismC was handed   440896454 working-precision words and    45 shell-pairs
 Enter PrismC:  IPart= 23 JobTyp=20 DoJE=T Cont=F.
 Enter PrismC:  IPart= 10 JobTyp=20 DoJE=T Cont=F.
 Enter PrismC:  IPart=  8 JobTyp=20 DoJE=T Cont=F.
 PrismC:  IPart=    23 DynPar=F LinDyn=F Incr=           1 UseFst=F UseS4=T ISplat=2.
 PrismC was handed   440896454 working-precision words and    45 shell-pairs
 PrismC:  IPart=    10 DynPar=F LinDyn=F Incr=           1 UseFst=F UseS4=T ISplat=2.
 PrismC was handed   440896454 working-precision words and    45 shell-pairs
 Enter PrismC:  IPart= 21 JobTyp=20 DoJE=T Cont=F.
 Enter PrismC:  IPart=  5 JobTyp=20 DoJE=T Cont=F.
 Enter PrismC:  IPart= 16 JobTyp=20 DoJE=T Cont=F.
 PrismC:  IPart=     8 DynPar=F LinDyn=F Incr=           1 UseFst=F UseS4=T ISplat=2.
 PrismC was handed   440896454 working-precision words and    45 shell-pairs
 PrismC:  IPart=    16 DynPar=F LinDyn=F Incr=           1 UseFst=F UseS4=T ISplat=2.
 PrismC was handed   440896454 working-precision words and    45 shell-pairs
 Enter PrismC:  IPart= 19 JobTyp=20 DoJE=T Cont=F.
 PrismC:  IPart=     5 DynPar=F LinDyn=F Incr=           1 UseFst=F UseS4=T ISplat=2.
 Enter PrismC:  IPart=  6 JobTyp=20 DoJE=T Cont=F.
 PrismC:  IPart=    19 DynPar=F LinDyn=F Incr=           1 UseFst=F UseS4=T ISplat=2.
 Enter PrismC:  IPart= 27 JobTyp=20 DoJE=T Cont=F.
 Enter PrismC:  IPart= 14 JobTyp=20 DoJE=T Cont=F.
 PrismC:  IPart=     6 DynPar=F LinDyn=F Incr=           1 UseFst=F UseS4=T ISplat=2.
 PrismC:  IPart=    27 DynPar=F LinDyn=F Incr=           1 UseFst=F UseS4=T ISplat=2.
 Enter PrismC:  IPart= 17 JobTyp=20 DoJE=T Cont=F.
 PrismC was handed   440896454 working-precision words and    45 shell-pairs
 Enter PrismC:  IPart= 12 JobTyp=20 DoJE=T Cont=F.
 Enter PrismC:  IPart= 20 JobTyp=20 DoJE=T Cont=F.
 PrismC:  IPart=    21 DynPar=F LinDyn=F Incr=           1 UseFst=F UseS4=T ISplat=2.
 Enter PrismC:  IPart= 26 JobTyp=20 DoJE=T Cont=F.
 Enter PrismC:  IPart=  3 JobTyp=20 DoJE=T Cont=F.
 Enter PrismC:  IPart=  9 JobTyp=20 DoJE=T Cont=F.
 Enter PrismC:  IPart=  7 JobTyp=20 DoJE=T Cont=F.
 Enter PrismC:  IPart= 25 JobTyp=20 DoJE=T Cont=F.
 Enter PrismC:  IPart= 22 JobTyp=20 DoJE=T Cont=F.
 Enter PrismC:  IPart= 15 JobTyp=20 DoJE=T Cont=F.
 PrismC:  IPart=    14 DynPar=F LinDyn=F Incr=           1 UseFst=F UseS4=T ISplat=2.
 PrismC:  IPart=    15 DynPar=F LinDyn=F Incr=           1 UseFst=F UseS4=T ISplat=2.
 PrismC:  IPart=     3 DynPar=F LinDyn=F Incr=           1 UseFst=F UseS4=T ISplat=2.
 PrismC:  IPart=     7 DynPar=F LinDyn=F Incr=           1 UseFst=F UseS4=T ISplat=2.
[...]
         2        -0.0000     -0.0000     -0.0000     -0.0000
         3        -0.0000     -0.0000      0.0000     -0.0000
         4        -0.0000      0.0000     -0.0000     -0.0000
         5         0.0000     -0.0000     -0.0000      0.0000
         6        -0.0000      0.0000      0.0000     -0.0000
  1/2[<0|del|b>*<b|r|0> + (<0|r|b>*<b|del|0>)*] (Au)
       state          X           Y           Z        Dip. S.   Osc.(frdel)
         1         0.0000     -0.0000     -0.0000      0.0000      0.0000
         2        -0.0000     -0.0000      0.0000      0.0000      0.0000
         3         0.0000     -0.0000     -0.0000      0.0000      0.0000
         4        -0.0300     -0.0004     -0.1297      0.1601      0.1067
         5        -0.0985     -0.0422     -0.0194      0.1601      0.1067
         6        -0.0316     -0.1176     -0.0110      0.1601      0.1067

 Excitation energies and oscillator strengths:
 
 Excited state symmetry could not be determined.
 Excited State   1:      Triplet-?Sym   29.3544 eV   42.24 nm  f=0.0000  <S**2>=2.000
       7 -> 10        -0.21716
       8 -> 10         0.60687
       9 -> 10         0.28764
 This state for optimization and/or second-order correction.
 Total Energy, E(TD-HF/TD-DFT) =  -678.535798652    
 Copying the excited state density for this state as the 1-particle RhoCI density.
 
 Excited state symmetry could not be determined.
 Excited State   2:      Triplet-?Sym   29.3544 eV   42.24 nm  f=0.0000  <S**2>=2.000
       7 -> 10         0.63543
       8 -> 10         0.28352
       9 -> 10        -0.11845
 
 Excited state symmetry could not be determined.
 Excited State   3:      Triplet-?Sym   29.3544 eV   42.24 nm  f=0.0000  <S**2>=2.000
       7 -> 10         0.21739
       8 -> 10        -0.22251
       9 -> 10         0.63358
 
 Excited state symmetry could not be determined.
 Excited State   4:      Singlet-?Sym   29.7349 eV   41.70 nm  f=0.1115  <S**2>=0.000
       7 -> 10         0.45835
       9 -> 10         0.53598
 
 Excited state symmetry could not be determined.
 Excited State   5:      Singlet-?Sym   29.7349 eV   41.70 nm  f=0.1115  <S**2>=0.000
       7 -> 10         0.53095
       9 -> 10        -0.46032
 
 Excited state symmetry could not be determined.
 Excited State   6:      Singlet-?Sym   29.7349 eV   41.70 nm  f=0.1115  <S**2>=0.000
       8 -> 10         0.70127
 SavETr:  write IOETrn=   770 NScale= 10 NData=  16 NLR=1 NState=    6 LETran=     118.
 Leave Link  914 at Thu Nov 17 11:34:09 2022, MaxMem= 12348030976 cpu:              22.2 elap:               0.8
 (Enter /sw/contrib/gaussian/g16/C01_v2/g16/l601.exe)
 Copying SCF densities to generalized density rwf, IOpCl= 0 IROHF=0.

 **********************************************************************

            Population analysis using the SCF Density.

 **********************************************************************

 Alpha  occ. eigenvalues -- -146.88106 -16.22795 -13.20301 -13.20301 -13.20301
 Alpha  occ. eigenvalues --   -2.42587  -1.66702  -1.66702  -1.66702
 Alpha virt. eigenvalues --   -0.49836  -0.35754  -0.35754  -0.35754  -0.20899
 Alpha virt. eigenvalues --    0.28532   0.28532   0.28532
     Molecular Orbital Coefficients:
                           1         2         3         4         5
                           O         O         O         O         O
     Eigenvalues --  -146.88106 -16.22795 -13.20301 -13.20301 -13.20301
   1 1   Ca 1S          0.99946  -0.29288  -0.00000  -0.00000  -0.00000
   2        2S          0.00192   1.03861   0.00000   0.00000   0.00000
   3        3S         -0.00020   0.00530   0.00000   0.00000   0.00000
   4        4S          0.00019  -0.00538  -0.00000  -0.00000  -0.00000
   5        5S         -0.00009  -0.00534   0.00000   0.00000   0.00000
   6        6PX         0.00000   0.00000   0.89914   0.04372  -0.36108
   7        6PY         0.00000   0.00000  -0.15440   0.91770  -0.27337
   8        6PZ        -0.00000  -0.00000   0.32932   0.31090   0.85769
   9        7PX         0.00000  -0.00000   0.00037   0.00002  -0.00015
  10        7PY        -0.00000   0.00000  -0.00006   0.00037  -0.00011
  11        7PZ        -0.00000  -0.00000   0.00013   0.00013   0.00035
  12        8PX        -0.00000   0.00000   0.07059   0.00343  -0.02835
  13        8PY         0.00000   0.00000  -0.01212   0.07204  -0.02146
  14        8PZ        -0.00000  -0.00000   0.02585   0.02441   0.06733
  15        9PX        -0.00000  -0.00000  -0.00064  -0.00003   0.00026
  16        9PY        -0.00000   0.00000   0.00011  -0.00066   0.00020
  17        9PZ         0.00000  -0.00000  -0.00024  -0.00022  -0.00061
                           6         7         8         9        10
                           O         O         O         O         V
     Eigenvalues --    -2.42587  -1.66702  -1.66702  -1.66702  -0.49836
   1 1   Ca 1S         -0.10296   0.00000   0.00000   0.00000  -0.03270
   2        2S          0.39841  -0.00000  -0.00000  -0.00000   0.13776
   3        3S          0.01325   0.00000   0.00000   0.00000  -0.69166
   4        4S         -0.01526  -0.00000  -0.00000  -0.00000   1.51401
   5        5S          1.07289   0.00000   0.00000   0.00000   0.00343
   6        6PX         0.00000  -0.30157   0.10785   0.06264   0.00000
   7        6PY         0.00000  -0.08115  -0.29414   0.11574   0.00000
   8        6PZ        -0.00000  -0.09470  -0.09138  -0.29864  -0.00000
   9        7PX        -0.00000   0.52613  -0.18816  -0.10927  -0.00000
  10        7PY        -0.00000   0.14158   0.51316  -0.20192  -0.00000
  11        7PZ         0.00000   0.16522   0.15942   0.52100   0.00000
  12        8PX        -0.00000   0.57674  -0.20626  -0.11979  -0.00000
  13        8PY        -0.00000   0.15520   0.56253  -0.22135  -0.00000
  14        8PZ         0.00000   0.18112   0.17476   0.57112   0.00000
  15        9PX        -0.00000  -0.01034   0.00370   0.00215   0.00000
  16        9PY         0.00000  -0.00278  -0.01009   0.00397   0.00000
  17        9PZ        -0.00000  -0.00325  -0.00313  -0.01024  -0.00000
                          11        12        13        14        15
                           V         V         V         V         V
     Eigenvalues --    -0.35754  -0.35754  -0.35754  -0.20899   0.28532
   1 1   Ca 1S          0.00000  -0.00000   0.00000   0.02238  -0.00000
   2        2S         -0.00000   0.00000  -0.00000  -0.13157   0.00000
   3        3S          0.00000  -0.00000   0.00000   3.24832  -0.00000
   4        4S         -0.00000   0.00000  -0.00000  -2.09973   0.00000
   5        5S          0.00000  -0.00000   0.00000   1.54160  -0.00000
   6        6PX         0.08706   0.05396  -0.02882   0.00000  -0.28624
   7        6PY         0.00256   0.04687   0.09549  -0.00000   0.02559
   8        6PZ        -0.06112   0.07883  -0.03705   0.00000   0.19153
   9        7PX         0.07943   0.04923  -0.02629   0.00000  -0.84129
  10        7PY         0.00233   0.04276   0.08712  -0.00000   0.07520
  11        7PZ        -0.05577   0.07191  -0.03380   0.00000   0.56294
  12        8PX        -0.26080  -0.16166   0.08633  -0.00000   0.86951
  13        8PY        -0.00766  -0.14040  -0.28606   0.00000  -0.07772
  14        8PZ         0.18310  -0.23613   0.11099  -0.00000  -0.58182
  15        9PX         0.82802   0.51325  -0.27408   0.00000   0.10487
  16        9PY         0.02433   0.44575   0.90823  -0.00000  -0.00937
  17        9PZ        -0.58134   0.74970  -0.35238   0.00000  -0.07018
                          16        17
                           V         V
     Eigenvalues --     0.28532   0.28532
   1 1   Ca 1S          0.00000  -0.00000
   2        2S         -0.00000   0.00000
   3        3S          0.00000  -0.00000
   4        4S         -0.00000   0.00000
   5        5S          0.00000  -0.00000
   6        6PX        -0.18951   0.03778
   7        6PY        -0.10410  -0.32830
   8        6PZ        -0.26930   0.10032
   9        7PX        -0.55698   0.11104
  10        7PY        -0.30596  -0.96491
  11        7PZ        -0.79151   0.29485
  12        8PX         0.57566  -0.11477
  13        8PY         0.31622   0.99728
  14        8PZ         0.81806  -0.30474
  15        9PX         0.06943  -0.01384
  16        9PY         0.03814   0.12028
  17        9PZ         0.09867  -0.03676
     Density Matrix:
                           1         2         3         4         5
   1 1   Ca 1S          2.19061
   2        2S         -0.68658   2.47489
   3        3S         -0.00623   0.02156   0.00041
   4        4S          0.00668  -0.02335  -0.00046   0.00052
   5        5S         -0.21798   0.84380   0.02837  -0.03270   2.30223
   6        6PX         0.00000  -0.00000   0.00000  -0.00000  -0.00000
   7        6PY         0.00000  -0.00000   0.00000  -0.00000   0.00000
   8        6PZ        -0.00000   0.00000  -0.00000   0.00000  -0.00000
   9        7PX        -0.00000  -0.00000   0.00000  -0.00000   0.00000
  10        7PY        -0.00000   0.00000  -0.00000   0.00000  -0.00000
  11        7PZ         0.00000  -0.00000   0.00000  -0.00000   0.00000
  12        8PX        -0.00000   0.00000   0.00000  -0.00000   0.00000
  13        8PY        -0.00000   0.00000  -0.00000   0.00000  -0.00000
  14        8PZ         0.00000  -0.00000   0.00000  -0.00000   0.00000
  15        9PX         0.00000  -0.00000  -0.00000   0.00000  -0.00000
  16        9PY        -0.00000   0.00000   0.00000  -0.00000   0.00000
  17        9PZ        -0.00000   0.00000  -0.00000   0.00000  -0.00000
                           6         7         8         9        10
   6        6PX         2.09451
   7        6PY         0.00000   2.09451
   8        6PZ         0.00000  -0.00000   2.09451
   9        7PX        -0.37084   0.00000   0.00000   0.64831
  10        7PY        -0.00000  -0.37084   0.00000  -0.00000   0.64831
  11        7PZ         0.00000  -0.00000  -0.37084  -0.00000   0.00000
  12        8PX        -0.25965  -0.00000  -0.00000   0.71073   0.00000
  13        8PY         0.00000  -0.25965   0.00000  -0.00000   0.71073
  14        8PZ        -0.00000   0.00000  -0.25965   0.00000  -0.00000
  15        9PX         0.00596   0.00000  -0.00000  -0.01274  -0.00000
  16        9PY         0.00000   0.00596  -0.00000  -0.00000  -0.01274
  17        9PZ        -0.00000   0.00000   0.00596   0.00000  -0.00000
                          11        12        13        14        15
  11        7PZ         0.64831
  12        8PX        -0.00000   0.79063
  13        8PY         0.00000   0.00000   0.79063
  14        8PZ         0.71073   0.00000  -0.00000   0.79063
  15        9PX         0.00000  -0.01407  -0.00000   0.00000   0.00025
  16        9PY         0.00000  -0.00000  -0.01407   0.00000   0.00000
  17        9PZ        -0.01274   0.00000  -0.00000  -0.01407  -0.00000
                          16        17
  16        9PY         0.00025
  17        9PZ         0.00000   0.00025
    Full Mulliken population analysis:
                           1         2         3         4         5
   1 1   Ca 1S          2.19061
   2        2S         -0.19234   2.47489
   3        3S         -0.00005   0.00448   0.00041
   4        4S         -0.00000  -0.00028  -0.00039   0.00052
   5        5S          0.00178  -0.28755  -0.01885   0.00888   2.30223
   6        6PX         0.00000   0.00000   0.00000   0.00000   0.00000
   7        6PY         0.00000   0.00000   0.00000   0.00000   0.00000
   8        6PZ         0.00000   0.00000   0.00000   0.00000   0.00000
   9        7PX         0.00000   0.00000   0.00000   0.00000   0.00000
  10        7PY         0.00000   0.00000   0.00000   0.00000   0.00000
  11        7PZ         0.00000   0.00000   0.00000   0.00000   0.00000
  12        8PX         0.00000   0.00000   0.00000   0.00000   0.00000
  13        8PY         0.00000   0.00000   0.00000   0.00000   0.00000
  14        8PZ         0.00000   0.00000   0.00000   0.00000   0.00000
  15        9PX         0.00000   0.00000   0.00000   0.00000   0.00000
  16        9PY         0.00000   0.00000   0.00000   0.00000   0.00000
  17        9PZ         0.00000   0.00000   0.00000   0.00000   0.00000
                           6         7         8         9        10
   6        6PX         2.09451
   7        6PY         0.00000   2.09451
   8        6PZ         0.00000   0.00000   2.09451
   9        7PX        -0.02514   0.00000   0.00000   0.64831
  10        7PY         0.00000  -0.02514   0.00000   0.00000   0.64831
  11        7PZ         0.00000   0.00000  -0.02514   0.00000   0.00000
  12        8PX        -0.09386   0.00000   0.00000   0.35630   0.00000
  13        8PY         0.00000  -0.09386   0.00000   0.00000   0.35630
  14        8PZ         0.00000   0.00000  -0.09386   0.00000   0.00000
  15        9PX         0.00004   0.00000   0.00000  -0.00160   0.00000
  16        9PY         0.00000   0.00004   0.00000   0.00000  -0.00160
  17        9PZ         0.00000   0.00000   0.00004   0.00000   0.00000
                          11        12        13        14        15
  11        7PZ         0.64831
  12        8PX         0.00000   0.79063
  13        8PY         0.00000   0.00000   0.79063
  14        8PZ         0.35630   0.00000   0.00000   0.79063
  15        9PX         0.00000  -0.00258   0.00000   0.00000   0.00025
  16        9PY         0.00000   0.00000  -0.00258   0.00000   0.00000
  17        9PZ        -0.00160   0.00000   0.00000  -0.00258   0.00000
                          16        17
  16        9PY         0.00025
  17        9PZ         0.00000   0.00025
     Gross orbital populations:
                           1
   1 1   Ca 1S          1.99999
   2        2S          1.99919
   3        3S         -0.01441
   4        4S          0.00874
   5        5S          2.00648
   6        6PX         1.97554
   7        6PY         1.97554
   8        6PZ         1.97554
   9        7PX         0.97787
  10        7PY         0.97787
  11        7PZ         0.97787
  12        8PX         1.05048
  13        8PY         1.05048
  14        8PZ         1.05048
  15        9PX        -0.00390
  16        9PY        -0.00390
  17        9PZ        -0.00390
          Condensed to atoms (all electrons):
               1
     1  Ca  18.000000
 Mulliken charges:
               1
     1  Ca   2.000000
 Sum of Mulliken charges =   2.00000
 Mulliken charges with hydrogens summed into heavy atoms:
               1
     1  Ca   2.000000
 Electronic spatial extent (au):  <R**2>=             15.3136
 Charge=              2.0000 electrons
 Dipole moment (field-independent basis, Debye):
    X=             -0.0000    Y=             -0.0000    Z=              0.0000  Tot=              0.0000
 Quadrupole moment (field-independent basis, Debye-Ang):
   XX=             -6.8658   YY=             -6.8658   ZZ=             -6.8658
   XY=              0.0000   XZ=              0.0000   YZ=             -0.0000
 Traceless Quadrupole moment (field-independent basis, Debye-Ang):
   XX=             -0.0000   YY=             -0.0000   ZZ=              0.0000
   XY=              0.0000   XZ=              0.0000   YZ=             -0.0000
 Octapole moment (field-independent basis, Debye-Ang**2):
  XXX=             -0.0000  YYY=             -0.0000  ZZZ=              0.0000  XYY=             -0.0000
  XXY=             -0.0000  XXZ=              0.0000  XZZ=             -0.0000  YZZ=             -0.0000
  YYZ=              0.0000  XYZ=              0.0000
 Hexadecapole moment (field-independent basis, Debye-Ang**3):
 XXXX=             -3.2903 YYYY=             -3.2903 ZZZZ=             -3.2903 XXXY=              0.0000
 XXXZ=             -0.0000 YYYX=              0.0000 YYYZ=              0.0000 ZZZX=             -0.0000
 ZZZY=              0.0000 XXYY=             -1.0968 XXZZ=             -1.0968 YYZZ=             -1.0968
 XXYZ=              0.0000 YYXZ=             -0.0000 ZZXY=              0.0000
 N-N= 0.000000000000D+00 E-N=-1.616462254820D+03  KE= 6.965804352776D+02
 Orbital energies and kinetic energies (alpha):
                                 1                 2
   1         O              -146.881060        198.973103
   2         O               -16.227947         33.477134
   3         O               -13.203007         31.384787
   4         O               -13.203007         31.384787
   5         O               -13.203007         31.384787
   6         O                -2.425869          6.257893
   7         O                -1.667017          5.142576
   8         O                -1.667017          5.142576
   9         O                -1.667017          5.142576
  10         V                -0.498360          0.883227
  11         V                -0.357543          0.676600
  12         V                -0.357543          0.676600
  13         V                -0.357543          0.676600
  14         V                -0.208991          0.491468
  15         V                 0.285322          5.416295
  16         V                 0.285322          5.416295
  17         V                 0.285322          5.416295
 Total kinetic energy from orbitals= 6.965804352776D+02
 Leave Link  601 at Thu Nov 17 11:34:09 2022, MaxMem= 12348030976 cpu:               2.2 elap:               0.1
 (Enter /sw/contrib/gaussian/g16/C01_v2/g16/l9999.exe)
 Electronic transition elements 
                 1             2             3             4             5 
      1  -0.678536D+03 -0.678536D+03 -0.678536D+03 -0.678522D+03 -0.678522D+03
      2   0.000000D+00  0.000000D+00  0.000000D+00 -0.169294D+00 -0.306855D+00
      3   0.000000D+00  0.000000D+00  0.000000D+00  0.196802D-01 -0.200723D+00
      4   0.000000D+00  0.000000D+00  0.000000D+00 -0.352113D+00  0.136315D+00
      5   0.000000D+00  0.000000D+00  0.000000D+00  0.177135D+00  0.321066D+00
      6   0.000000D+00  0.000000D+00  0.000000D+00 -0.205915D-01  0.210019D+00
      7   0.000000D+00  0.000000D+00  0.000000D+00  0.368421D+00 -0.142628D+00
      8   0.000000D+00  0.000000D+00  0.000000D+00  0.000000D+00  0.000000D+00
      9   0.000000D+00  0.000000D+00  0.000000D+00  0.000000D+00  0.000000D+00
     10   0.000000D+00  0.000000D+00  0.000000D+00  0.000000D+00  0.000000D+00
     11   0.000000D+00  0.000000D+00  0.000000D+00  0.000000D+00  0.000000D+00
     12   0.000000D+00  0.000000D+00  0.000000D+00  0.000000D+00  0.000000D+00
     13   0.000000D+00  0.000000D+00  0.000000D+00  0.000000D+00  0.000000D+00
     14   0.000000D+00  0.000000D+00  0.000000D+00  0.000000D+00  0.000000D+00
     15   0.000000D+00  0.000000D+00  0.000000D+00  0.000000D+00  0.000000D+00
     16   0.000000D+00  0.000000D+00  0.000000D+00  0.000000D+00  0.000000D+00
                 6 
      1  -0.678522D+03
      2   0.173814D+00
      3  -0.335193D+00
      4  -0.102303D+00
      5  -0.181864D+00
      6   0.350717D+00
      7   0.107041D+00
      8   0.000000D+00
      9   0.000000D+00
     10   0.000000D+00
     11   0.000000D+00
     12   0.000000D+00
     13   0.000000D+00
     14   0.000000D+00
     15   0.000000D+00
     16   0.000000D+00

 Test job not archived.
 1\1\GINC-N2196\SP\RPBE1PBE TD-FC\Gen\Ca1(2+)\CLIAO25\17-Nov-2022\0\\#p
  td(50-50,nstates=3) IOp(3/33=1) pop=full nosymm pbe1pbe/gen int=dkh I
 Op(8/10=90) ExtraLinks(L319)\\Ca2+ ano-rcc-vdz\\2,1\Ca,0,0.,0.,0.\\Ver
 sion=EM64L-G16RevC.01\HF=-679.6145531\RMSD=2.550e-10\PG=OH [O(Ca1)]\\@


 THE MOST BEAUTIFUL EXPERIENCE WE CAN HAVE IS THE MYSTERIOUS.
 IT IS THE FUNDAMENTAL EMOTION WHICH STANDS AT AT THE CRADLE 
 OF TRUE ART AND TRUE SCIENCE.

                                    -- ALBERT EINSTEIN
 Job cpu time:       0 days  0 hours  1 minutes  7.3 seconds.
 Elapsed time:       0 days  0 hours  0 minutes  3.0 seconds.
 File lengths (MBytes):  RWF=     72 Int=      0 D2E=      0 Chk=      1 Scr=      1
 Normal termination of Gaussian 16 at Thu Nov 17 11:34:09 2022.
